 Entering Gaussian System, Link 0=g16
 Initial command:
 /nfs/apps/Gaussian/64/g16/l1.exe "/.nfs/home/5/tiwaris/qm_2022_plus/charge_calculations_10_amines/6_TAEA_dir/charges_gaff/Gau-19822.inp" -scrdir="/.nfs/home/5/tiwaris/qm_2022_plus/charge_calculations_10_amines/6_TAEA_dir/charges_gaff/"
 Entering Link 1 = /nfs/apps/Gaussian/64/g16/l1.exe PID=     19823.
  
 Copyright (c) 1988,1990,1992,1993,1995,1998,2003,2009,2016,
            Gaussian, Inc.  All Rights Reserved.
  
 This is part of the Gaussian(R) 16 program.  It is based on
 the Gaussian(R) 09 system (copyright 2009, Gaussian, Inc.),
 the Gaussian(R) 03 system (copyright 2003, Gaussian, Inc.),
 the Gaussian(R) 98 system (copyright 1998, Gaussian, Inc.),
 the Gaussian(R) 94 system (copyright 1995, Gaussian, Inc.),
 the Gaussian 92(TM) system (copyright 1992, Gaussian, Inc.),
 the Gaussian 90(TM) system (copyright 1990, Gaussian, Inc.),
 the Gaussian 88(TM) system (copyright 1988, Gaussian, Inc.),
 the Gaussian 86(TM) system (copyright 1986, Carnegie Mellon
 University), and the Gaussian 82(TM) system (copyright 1983,
 Carnegie Mellon University). Gaussian is a federally registered
 trademark of Gaussian, Inc.
  
 This software contains proprietary and confidential information,
 including trade secrets, belonging to Gaussian, Inc.
  
 This software is provided under written license and may be
 used, copied, transmitted, or stored only in accord with that
 written license.
  
 The following legend is applicable only to US Government
 contracts under FAR:
  
                    RESTRICTED RIGHTS LEGEND
  
 Use, reproduction and disclosure by the US Government is
 subject to restrictions as set forth in subparagraphs (a)
 and (c) of the Commercial Computer Software - Restricted
 Rights clause in FAR 52.227-19.
  
 Gaussian, Inc.
 340 Quinnipiac St., Bldg. 40, Wallingford CT 06492
  
  
 ---------------------------------------------------------------
 Warning -- This program may not be used in any manner that
 competes with the business of Gaussian, Inc. or will provide
 assistance to any competitor of Gaussian, Inc.  The licensee
 of this program is prohibited from giving any competitor of
 Gaussian, Inc. access to this program.  By using this program,
 the user acknowledges that Gaussian, Inc. is engaged in the
 business of creating and licensing software in the field of
 computational chemistry and represents and warrants to the
 licensee that it is not a competitor of Gaussian, Inc. and that
 it will not use this program in any manner prohibited above.
 ---------------------------------------------------------------
  

 Cite this work as:
 Gaussian 16, Revision A.03,
 M. J. Frisch, G. W. Trucks, H. B. Schlegel, G. E. Scuseria, 
 M. A. Robb, J. R. Cheeseman, G. Scalmani, V. Barone, 
 G. A. Petersson, H. Nakatsuji, X. Li, M. Caricato, A. V. Marenich, 
 J. Bloino, B. G. Janesko, R. Gomperts, B. Mennucci, H. P. Hratchian, 
 J. V. Ortiz, A. F. Izmaylov, J. L. Sonnenberg, D. Williams-Young, 
 F. Ding, F. Lipparini, F. Egidi, J. Goings, B. Peng, A. Petrone, 
 T. Henderson, D. Ranasinghe, V. G. Zakrzewski, J. Gao, N. Rega, 
 G. Zheng, W. Liang, M. Hada, M. Ehara, K. Toyota, R. Fukuda, 
 J. Hasegawa, M. Ishida, T. Nakajima, Y. Honda, O. Kitao, H. Nakai, 
 T. Vreven, K. Throssell, J. A. Montgomery, Jr., J. E. Peralta, 
 F. Ogliaro, M. J. Bearpark, J. J. Heyd, E. N. Brothers, K. N. Kudin, 
 V. N. Staroverov, T. A. Keith, R. Kobayashi, J. Normand, 
 K. Raghavachari, A. P. Rendell, J. C. Burant, S. S. Iyengar, 
 J. Tomasi, M. Cossi, J. M. Millam, M. Klene, C. Adamo, R. Cammi, 
 J. W. Ochterski, R. L. Martin, K. Morokuma, O. Farkas, 
 J. B. Foresman, and D. J. Fox, Gaussian, Inc., Wallingford CT, 2016.
 
 ******************************************
 Gaussian 16:  ES64L-G16RevA.03 25-Dec-2016
                 6-Dec-2023 
 ******************************************
 %mem=38GB
 %NoSave
 %nprocshared=40
 Will use up to   40 processors via shared memory.
 %chk=AC.chk
 ----------------------------------------------------------------------
 #HF/6-31G* SCF=tight Test Pop=MK iop(6/33=2) iop(6/42=6) guess=read ge
 om=AllCheck
 ----------------------------------------------------------------------
 1/29=7,38=1,172=1/1;
 2/12=2,40=1/2;
 3/5=1,6=6,7=1,11=9,14=-4,25=1,30=1,116=-2/1,2,3;
 4/5=1/1;
 5/5=2,32=2,38=6/2;
 6/7=2,8=2,9=2,10=2,15=8,20=1,28=1,33=2,42=6/1,2;
 99/5=1,9=1/99;
 Structure from the checkpoint file:  "AC.chk"
 -----
 Title
 -----
 Charge =  0 Multiplicity = 1
 Redundant internal coordinates found in file.  (old form).
 N,0,0.8860131818,-0.4798737621,0.9772672433
 C,0,2.35223106,-0.4881345704,1.0535924381
 C,0,2.8998127778,0.9100786154,0.7539599202
 N,0,4.3624347419,0.9765898242,0.831520219
 C,0,4.9306749714,1.9929187652,-0.0577144009
 C,0,5.086675726,1.5023362644,-1.4987931132
 N,0,5.6238500061,2.5813893731,-2.3371504907
 C,0,4.8448717902,1.1005741933,2.209987299
 C,0,6.2190981856,0.4597596807,2.4158563251
 N,0,6.6566475908,0.6550241934,3.8039277557
 H,0,0.4966892335,-1.3484271043,1.3262688862
 H,0,0.5711740219,-0.3760905502,0.0176568607
 H,0,2.834522515,-1.2022358588,0.3704151467
 H,0,2.6285489472,-0.7839403953,2.0695137394
 H,0,2.41690531,1.6382998893,1.4268792084
 H,0,2.5976673309,1.1815357075,-0.2624180511
 H,0,5.9217119355,2.2734571742,0.3036814
 H,0,4.3249066264,2.9190017867,-0.0451480002
 H,0,4.1292134917,1.0993588811,-1.8622061514
 H,0,5.799856253,0.6738444279,-1.5053092711
 H,0,4.9415918401,3.3234224789,-2.4587857143
 H,0,5.8635354467,2.2408977232,-3.2616441893
 H,0,4.1432481785,0.6045404624,2.882953129
 H,0,4.878313805,2.1596994417,2.5280293013
 H,0,6.9291716266,0.8519431698,1.6725954705
 H,0,6.1297774566,-0.6140927727,2.2311961347
 H,0,6.8698427652,1.6312105031,3.9844968137
 H,0,7.4990231846,0.1250924584,3.9982120913
 Recover connectivity data from disk.
                           ----------------------------
                           !    Current Parameters    !
                           ! (Angstroms and Degrees)  !
 --------------------------                            --------------------------
 ! Name  Definition              Value                                          !
 --------------------------------------------------------------------------------
 ! R1    R(1,2)                  1.4682                                         !
 ! R2    R(1,11)                 1.0138                                         !
 ! R3    R(1,12)                 1.0153                                         !
 ! R4    R(2,3)                  1.5312                                         !
 ! R5    R(2,13)                 1.0997                                         !
 ! R6    R(2,14)                 1.0936                                         !
 ! R7    R(3,4)                  1.4662                                         !
 ! R8    R(3,15)                 1.1029                                         !
 ! R9    R(3,16)                 1.0945                                         !
 ! R10   R(4,5)                  1.4651                                         !
 ! R11   R(4,8)                  1.4657                                         !
 ! R12   R(5,6)                  1.5303                                         !
 ! R13   R(5,17)                 1.0915                                         !
 ! R14   R(5,18)                 1.1067                                         !
 ! R15   R(6,7)                  1.4682                                         !
 ! R16   R(6,19)                 1.1005                                         !
 ! R17   R(6,20)                 1.0932                                         !
 ! R18   R(7,21)                 1.0153                                         !
 ! R19   R(7,22)                 1.0139                                         !
 ! R20   R(8,9)                  1.5302                                         !
 ! R21   R(8,23)                 1.0914                                         !
 ! R22   R(8,24)                 1.1064                                         !
 ! R23   R(9,10)                 1.4684                                         !
 ! R24   R(9,25)                 1.1002                                         !
 ! R25   R(9,26)                 1.0933                                         !
 ! R26   R(10,27)                1.0154                                         !
 ! R27   R(10,28)                1.014                                          !
 ! A1    A(2,1,11)             111.1486                                         !
 ! A2    A(2,1,12)             111.063                                          !
 ! A3    A(11,1,12)            107.0901                                         !
 ! A4    A(1,2,3)              109.9874                                         !
 ! A5    A(1,2,13)             114.1631                                         !
 ! A6    A(1,2,14)             107.5861                                         !
 ! A7    A(3,2,13)             108.3343                                         !
 ! A8    A(3,2,14)             109.7807                                         !
 ! A9    A(13,2,14)            106.8978                                         !
 ! A10   A(2,3,4)              112.8186                                         !
 ! A11   A(2,3,15)             109.0844                                         !
 ! A12   A(2,3,16)             108.0267                                         !
 ! A13   A(4,3,15)             111.9977                                         !
 ! A14   A(4,3,16)             108.2552                                         !
 ! A15   A(15,3,16)            106.3767                                         !
 ! A16   A(3,4,5)              112.7223                                         !
 ! A17   A(3,4,8)              112.4538                                         !
 ! A18   A(5,4,8)              112.6112                                         !
 ! A19   A(4,5,6)              112.8747                                         !
 ! A20   A(4,5,17)             109.2367                                         !
 ! A21   A(4,5,18)             111.1797                                         !
 ! A22   A(6,5,17)             107.5554                                         !
 ! A23   A(6,5,18)             109.5582                                         !
 ! A24   A(17,5,18)            106.1495                                         !
 ! A25   A(5,6,7)              109.8405                                         !
 ! A26   A(5,6,19)             109.8564                                         !
 ! A27   A(5,6,20)             108.3657                                         !
 ! A28   A(7,6,19)             113.5062                                         !
 ! A29   A(7,6,20)             108.3541                                         !
 ! A30   A(19,6,20)            106.7441                                         !
 ! A31   A(6,7,21)             111.0798                                         !
 ! A32   A(6,7,22)             111.1193                                         !
 ! A33   A(21,7,22)            107.1597                                         !
 ! A34   A(4,8,9)              112.7496                                         !
 ! A35   A(4,8,23)             109.26                                           !
 ! A36   A(4,8,24)             111.1793                                         !
 ! A37   A(9,8,23)             107.7005                                         !
 ! A38   A(9,8,24)             109.5774                                         !
 ! A39   A(23,8,24)            106.0969                                         !
 ! A40   A(8,9,10)             109.821                                          !
 ! A41   A(8,9,25)             109.8432                                         !
 ! A42   A(8,9,26)             108.3755                                         !
 ! A43   A(10,9,25)            113.5083                                         !
 ! A44   A(10,9,26)            108.3378                                         !
 ! A45   A(25,9,26)            106.7835                                         !
 ! A46   A(9,10,27)            111.0084                                         !
 ! A47   A(9,10,28)            111.0487                                         !
 ! A48   A(27,10,28)           107.0942                                         !
 ! D1    D(11,1,2,3)          -170.2072                                         !
 ! D2    D(11,1,2,13)           67.7842                                         !
 ! D3    D(11,1,2,14)          -50.6661                                         !
 ! D4    D(12,1,2,3)            70.6727                                         !
 ! D5    D(12,1,2,13)          -51.3359                                         !
 ! D6    D(12,1,2,14)         -169.7862                                         !
 ! D7    D(1,2,3,4)            179.2196                                         !
 ! D8    D(1,2,3,15)            54.0798                                         !
 ! D9    D(1,2,3,16)           -61.1558                                         !
 ! D10   D(13,2,3,4)           -55.3723                                         !
 ! D11   D(13,2,3,15)          179.4879                                         !
 ! D12   D(13,2,3,16)           64.2522                                         !
 ! D13   D(14,2,3,4)            61.0248                                         !
 ! D14   D(14,2,3,15)          -64.115                                          !
 ! D15   D(14,2,3,16)         -179.3506                                         !
 ! D16   D(2,3,4,5)            150.654                                          !
 ! D17   D(2,3,4,8)            -80.7312                                         !
 ! D18   D(15,3,4,5)           -85.8043                                         !
 ! D19   D(15,3,4,8)            42.8106                                         !
 ! D20   D(16,3,4,5)            31.1614                                         !
 ! D21   D(16,3,4,8)           159.7763                                         !
 ! D22   D(3,4,5,6)            -82.3719                                         !
 ! D23   D(3,4,5,17)           158.0272                                         !
 ! D24   D(3,4,5,18)            41.2102                                         !
 ! D25   D(8,4,5,6)            149.0951                                         !
 ! D26   D(8,4,5,17)            29.4942                                         !
 ! D27   D(8,4,5,18)           -87.3228                                         !
 ! D28   D(3,4,8,9)            149.7592                                         !
 ! D29   D(3,4,8,23)            30.0397                                         !
 ! D30   D(3,4,8,24)           -86.7269                                         !
 ! D31   D(5,4,8,9)            -81.5679                                         !
 ! D32   D(5,4,8,23)           158.7126                                         !
 ! D33   D(5,4,8,24)            41.946                                          !
 ! D34   D(4,5,6,7)            178.4039                                         !
 ! D35   D(4,5,6,19)            52.8742                                         !
 ! D36   D(4,5,6,20)           -63.3984                                         !
 ! D37   D(17,5,6,7)           -61.0299                                         !
 ! D38   D(17,5,6,19)          173.4403                                         !
 ! D39   D(17,5,6,20)           57.1678                                         !
 ! D40   D(18,5,6,7)            53.9302                                         !
 ! D41   D(18,5,6,19)          -71.5996                                         !
 ! D42   D(18,5,6,20)          172.1279                                         !
 ! D43   D(5,6,7,21)           -69.1737                                         !
 ! D44   D(5,6,7,22)           171.627                                          !
 ! D45   D(19,6,7,21)           54.2421                                         !
 ! D46   D(19,6,7,22)          -64.9572                                         !
 ! D47   D(20,6,7,21)          172.6215                                         !
 ! D48   D(20,6,7,22)           53.4221                                         !
 ! D49   D(4,8,9,10)           178.3445                                         !
 ! D50   D(4,8,9,25)            52.8351                                         !
 ! D51   D(4,8,9,26)           -63.4828                                         !
 ! D52   D(23,8,9,10)          -61.0393                                         !
 ! D53   D(23,8,9,25)          173.4513                                         !
 ! D54   D(23,8,9,26)           57.1334                                         !
 ! D55   D(24,8,9,10)           53.9469                                         !
 ! D56   D(24,8,9,25)          -71.5625                                         !
 ! D57   D(24,8,9,26)          172.1196                                         !
 ! D58   D(8,9,10,27)          -69.2123                                         !
 ! D59   D(8,9,10,28)          171.7636                                         !
 ! D60   D(25,9,10,27)          54.1729                                         !
 ! D61   D(25,9,10,28)         -64.8512                                         !
 ! D62   D(26,9,10,27)         172.5917                                         !
 ! D63   D(26,9,10,28)          53.5676                                         !
 --------------------------------------------------------------------------------
                          Input orientation:                          
 ---------------------------------------------------------------------
 Center     Atomic      Atomic             Coordinates (Angstroms)
 Number     Number       Type             X           Y           Z
 ---------------------------------------------------------------------
      1          7           0        0.886013   -0.479874    0.977267
      2          6           0        2.352231   -0.488135    1.053592
      3          6           0        2.899813    0.910079    0.753960
      4          7           0        4.362435    0.976590    0.831520
      5          6           0        4.930675    1.992919   -0.057714
      6          6           0        5.086676    1.502336   -1.498793
      7          7           0        5.623850    2.581389   -2.337150
      8          6           0        4.844872    1.100574    2.209987
      9          6           0        6.219098    0.459760    2.415856
     10          7           0        6.656648    0.655024    3.803928
     11          1           0        0.496689   -1.348427    1.326269
     12          1           0        0.571174   -0.376091    0.017657
     13          1           0        2.834523   -1.202236    0.370415
     14          1           0        2.628549   -0.783940    2.069514
     15          1           0        2.416905    1.638300    1.426879
     16          1           0        2.597667    1.181536   -0.262418
     17          1           0        5.921712    2.273457    0.303681
     18          1           0        4.324907    2.919002   -0.045148
     19          1           0        4.129213    1.099359   -1.862206
     20          1           0        5.799856    0.673844   -1.505309
     21          1           0        4.941592    3.323422   -2.458786
     22          1           0        5.863535    2.240898   -3.261644
     23          1           0        4.143248    0.604540    2.882953
     24          1           0        4.878314    2.159699    2.528029
     25          1           0        6.929172    0.851943    1.672595
     26          1           0        6.129777   -0.614093    2.231196
     27          1           0        6.869843    1.631211    3.984497
     28          1           0        7.499023    0.125092    3.998212
 ---------------------------------------------------------------------
                    Distance matrix (angstroms):
                    1          2          3          4          5
     1  N    0.000000
     2  C    1.468226   0.000000
     3  C    2.457076   1.531217   0.000000
     4  N    3.772007   2.497129   1.466186   0.000000
     5  C    4.852337   3.746866   2.440442   1.465114   0.000000
     6  C    5.263611   4.237196   3.195002   2.496256   1.530266
     7  N    6.542461   5.623398   4.446192   3.769221   2.454102
     8  C    4.437339   3.174036   2.437121   1.465704   2.438465
     9  C    5.603057   4.207960   3.739297   2.494881   3.182635
    10  N    6.525199   5.234421   4.845737   3.768557   4.436353
    11  H    1.013785   2.063369   3.347146   4.538113   5.721908
    12  H    1.015257   2.063463   2.760241   4.106796   4.962170
    13  H    2.164894   1.099671   2.147846   2.700817   3.845278
    14  H    2.078916   1.093594   2.161936   2.763775   4.187581
    15  H    2.651875   2.159919   1.102872   2.139485   2.940886
    16  H    2.688282   2.140075   1.094534   2.086410   2.478542
    17  H    5.778651   4.574926   3.345658   2.095668   1.091542
    18  H    4.942032   4.087451   2.589447   2.131413   1.106681
    19  H    4.590744   3.765592   2.896822   2.706589   2.167252
    20  H    5.624954   4.447954   3.683796   2.760183   2.142654
    21  H    6.535996   5.793924   4.507197   4.082788   2.745087
    22  H    7.081433   6.196624   5.165250   4.539358   3.346175
    23  H    3.926471   2.783566   2.484371   2.096387   3.345917
    24  H    5.030971   3.945388   2.936553   2.131671   2.591646
    25  H    6.227117   4.809091   4.133159   2.703901   2.879199
    26  H    5.393275   3.958847   3.864971   2.759142   3.670622
    27  H    7.021846   5.787110   5.168901   4.081285   4.497852
    28  H    7.295478   5.961233   5.682791   4.537750   5.151284
                    6          7          8          9         10
     6  C    0.000000
     7  N    1.468249   0.000000
     8  C    3.738306   4.845212   0.000000
     9  C    4.206403   5.238960   1.530204   0.000000
    10  N    5.594783   6.518466   2.453914   1.468441   0.000000
    11  H    6.097196   7.426431   5.068062   6.099402   6.935250
    12  H    5.120338   6.310415   5.025072   6.192661   7.240997
    13  H    3.985078   5.424673   3.567697   4.289687   5.463247
    14  H    4.899210   6.302060   2.912596   3.815598   4.615668
    15  H    3.963044   5.034067   2.607188   4.101671   4.959093
    16  H    2.797624   3.927071   3.342046   4.561675   5.769550
    17  H    2.130922   2.675357   2.483796   2.799861   3.925708
    18  H    2.168022   2.656033   2.943243   3.961360   5.037658
    19  H    1.100542   2.157759   4.134601   4.804011   6.220163
    20  H    1.093191   2.088460   3.859731   3.949321   5.377959
    21  H    2.063732   1.015325   5.171832   5.796095   7.020210
    22  H    2.063160   1.013939   5.681264   5.960947   7.284664
    23  H    4.571192   5.774911   1.091425   2.132673   2.677297
    24  H    4.085442   4.940002   1.106352   2.167967   2.656019
    25  H    3.724984   4.557731   2.166775   1.100204   2.157689
    26  H    4.413633   5.597934   2.142782   1.093269   2.088477
    27  H    5.767388   6.512953   2.744261   2.063104   1.015380
    28  H    6.159000   7.048864   3.345718   2.062537   1.013988
                   11         12         13         14         15
    11  H    0.000000
    12  H    1.632009   0.000000
    13  H    2.529920   2.435098   0.000000
    14  H    2.327205   2.934152   1.761912   0.000000
    15  H    3.552167   3.074150   3.059275   2.514959   0.000000
    16  H    3.652225   2.571248   2.477689   3.049911   1.759271
    17  H    6.602621   5.977472   4.649262   4.828122   3.734792
    18  H    5.894657   4.995206   4.402106   4.589249   2.729016
    19  H    5.417865   4.286080   3.458057   4.610557   3.747071
    20  H    6.342791   5.546252   3.978847   4.996167   4.579548
    21  H    7.477297   6.238567   5.738092   6.536520   4.930727
    22  H    7.920558   6.753631   5.849952   6.930803   5.850182
    23  H    4.419812   4.683084   3.360067   2.209949   2.483761
    24  H    5.740193   5.593179   4.487203   3.733188   2.746438
    25  H    6.807232   6.683638   4.762507   4.618335   4.586860
    26  H    5.752375   5.987860   3.829768   3.509073   4.416517
    27  H    7.520738   7.709624   6.113413   5.242966   5.135184
    28  H    7.638273   8.005692   6.056424   5.316741   5.893172
                   16         17         18         19         20
    16  H    0.000000
    17  H    3.544296   0.000000
    18  H    2.459543   1.757327   0.000000
    19  H    2.216237   3.046740   2.578972   0.000000
    20  H    3.472253   2.417862   3.057496   1.760535   0.000000
    21  H    3.860789   3.113565   2.523788   2.441787   2.943807
    22  H    4.558892   3.565949   3.629470   2.503879   2.354660
    23  H    3.551775   3.549769   3.736778   4.770910   4.691055
    24  H    3.734267   2.459541   2.739350   4.578170   4.396001
    25  H    4.755506   2.215762   3.742402   4.516171   3.377299
    26  H    4.681687   3.478009   4.574064   4.867660   3.965993
    27  H    6.040693   3.854846   4.936916   6.479032   5.674451
    28  H    6.579691   4.555539   5.850616   6.830030   5.785935
                   21         22         23         24         25
    21  H    0.000000
    22  H    1.632918   0.000000
    23  H    6.046805   6.587346   0.000000
    24  H    5.121189   5.873464   1.756363   0.000000
    25  H    5.208358   5.235599   3.047547   2.578374   0.000000
    26  H    6.237928   6.196221   2.419949   3.057482   1.760775
    27  H    6.935245   7.341044   3.114766   2.523249   2.440423
    28  H    7.646083   7.736728   3.568599   3.628937   2.502306
                   26         27         28
    26  H    0.000000
    27  H    2.943322   0.000000
    28  H    2.354480   1.632314   0.000000
 Stoichiometry    C6H18N4
 Framework group  C1[X(C6H18N4)]
 Deg. of freedom    78
 Full point group                 C1      NOp   1
 Largest Abelian subgroup         C1      NOp   1
 Largest concise Abelian subgroup C1      NOp   1
                         Standard orientation:                         
 ---------------------------------------------------------------------
 Center     Atomic      Atomic             Coordinates (Angstroms)
 Number     Number       Type             X           Y           Z
 ---------------------------------------------------------------------
      1          7           0       -2.827335   -2.499285    0.037636
      2          6           0       -1.607237   -1.843421   -0.449080
      3          6           0       -1.220104   -0.696264    0.488355
      4          7           0        0.004526   -0.007775    0.068873
      5          6           0        0.025773    1.402089    0.466857
      6          6           0       -0.744302    2.304666   -0.499608
      7          7           0       -0.712302    3.691615   -0.018876
      8          6           0        1.216790   -0.725716    0.472936
      9          6           0        2.383081   -0.508387   -0.493530
     10          7           0        3.571398   -1.221653   -0.008272
     11          1           0       -3.011032   -3.355462   -0.473223
     12          1           0       -3.637400   -1.899528   -0.084156
     13          1           0       -1.687929   -1.443437   -1.470245
     14          1           0       -0.811968   -2.593945   -0.463589
     15          1           0       -1.144704   -1.082354    1.518683
     16          1           0       -2.038531    0.030496    0.490251
     17          1           0        1.059056    1.752989    0.492552
     18          1           0       -0.369749    1.534183    1.491970
     19          1           0       -1.762802    1.913855   -0.644932
     20          1           0       -0.250345    2.266625   -1.474096
     21          1           0       -1.264898    3.798028    0.826227
     22          1           0       -1.096683    4.326637   -0.709579
     23          1           0        1.007352   -1.796382    0.504835
     24          1           0        1.526199   -0.443038    1.496837
     25          1           0        2.548481    0.569000   -0.642959
     26          1           0        2.106340   -0.923214   -1.466448
     27          1           0        3.936322   -0.789439    0.834947
     28          1           0        4.314274   -1.203135   -0.698172
 ---------------------------------------------------------------------
 Rotational constants (GHZ):           0.9084592           0.9006429           0.4819036
 Standard basis: 6-31G(d) (6D, 7F)
 There are   186 symmetry adapted cartesian basis functions of A   symmetry.
 There are   186 symmetry adapted basis functions of A   symmetry.
   186 basis functions,   352 primitive gaussians,   186 cartesian basis functions
    41 alpha electrons       41 beta electrons
       nuclear repulsion energy       574.0612370534 Hartrees.
 NAtoms=   28 NActive=   28 NUniq=   28 SFac= 1.00D+00 NAtFMM=   60 NAOKFM=F Big=F
 Integral buffers will be    131072 words long.
 Raffenetti 1 integral format.
 Two-electron integral symmetry is turned on.
 One-electron integrals computed using PRISM.
 NBasis=   186 RedAO= T EigKep=  3.67D-03  NBF=   186
 NBsUse=   186 1.00D-06 EigRej= -1.00D+00 NBFU=   186
 Initial guess from the checkpoint file:  "AC.chk"
 B after Tr=     0.000000   -0.000000    0.000000
         Rot=    1.000000   -0.000000   -0.000000   -0.000000 Ang=   0.00 deg.
 Requested convergence on RMS density matrix=1.00D-08 within 128 cycles.
 Requested convergence on MAX density matrix=1.00D-06.
 Requested convergence on             energy=1.00D-06.
 No special actions if energy rises.
 SCF Done:  E(RHF) =  -455.427061853     A.U. after   11 cycles
            NFock= 11  Conv=0.94D-08     -V/T= 2.0021
 SCF density gives NOpUse=  1 NOpAll=  1.

 **********************************************************************

            Population analysis using the SCF density.

 **********************************************************************

 Orbital symmetries:
 BldTbl:  Degeneracy threshold= 1.00D-02
       Occupied  (A) (A) (A) (A) (A) (A) (A) (A) (A) (A) (A) (A)
                 (A) (A) (A) (A) (A) (A) (A) (A) (A) (A) (A) (A)
                 (A) (A) (A) (A) (A) (A) (A) (A) (A) (A) (A) (A)
                 (A) (A) (A) (A) (A)
       Virtual   (A) (A) (A) (A) (A) (A) (A) (A) (A) (A) (A) (A)
                 (A) (A) (A) (A) (A) (A) (A) (A) (A) (A) (A) (A)
                 (A) (A) (A) (A) (A) (A) (A) (A) (A) (A) (A) (A)
                 (A) (A) (A) (A) (A) (A) (A) (A) (A) (A) (A) (A)
                 (A) (A) (A) (A) (A) (A) (A) (A) (A) (A) (A) (A)
                 (A) (A) (A) (A) (A) (A) (A) (A) (A) (A) (A) (A)
                 (A) (A) (A) (A) (A) (A) (A) (A) (A) (A) (A) (A)
                 (A) (A) (A) (A) (A) (A) (A) (A) (A) (A) (A) (A)
                 (A) (A) (A) (A) (A) (A) (A) (A) (A) (A) (A) (A)
                 (A) (A) (A) (A) (A) (A) (A) (A) (A) (A) (A) (A)
                 (A) (A) (A) (A) (A) (A) (A) (A) (A) (A) (A) (A)
                 (A) (A) (A) (A) (A) (A) (A) (A) (A) (A) (A) (A)
                 (A)
 The electronic state is 1-A.
 Alpha  occ. eigenvalues --  -15.54354 -15.53978 -15.53841 -15.53710 -11.24382
 Alpha  occ. eigenvalues --  -11.24206 -11.24197 -11.24111 -11.24099 -11.24008
 Alpha  occ. eigenvalues --   -1.22436  -1.17086  -1.16932  -1.15912  -0.98752
 Alpha  occ. eigenvalues --   -0.98623  -0.90578  -0.82272  -0.82211  -0.77492
 Alpha  occ. eigenvalues --   -0.67606  -0.66529  -0.65706  -0.64017  -0.63007
 Alpha  occ. eigenvalues --   -0.60780  -0.59987  -0.58524  -0.57348  -0.55208
 Alpha  occ. eigenvalues --   -0.53497  -0.52923  -0.49942  -0.49292  -0.48558
 Alpha  occ. eigenvalues --   -0.47180  -0.46196  -0.38525  -0.38257  -0.38069
 Alpha  occ. eigenvalues --   -0.34349
 Alpha virt. eigenvalues --    0.22045   0.22750   0.22927   0.24552   0.26141
 Alpha virt. eigenvalues --    0.26951   0.27382   0.29251   0.31042   0.31526
 Alpha virt. eigenvalues --    0.32753   0.33424   0.33676   0.34770   0.35826
 Alpha virt. eigenvalues --    0.36982   0.38475   0.39070   0.39730   0.41660
 Alpha virt. eigenvalues --    0.42069   0.45510   0.45709   0.46108   0.46770
 Alpha virt. eigenvalues --    0.50065   0.50262   0.74373   0.74997   0.76193
 Alpha virt. eigenvalues --    0.76542   0.77129   0.78763   0.83013   0.83553
 Alpha virt. eigenvalues --    0.84051   0.87419   0.88983   0.91275   0.94758
 Alpha virt. eigenvalues --    0.95519   0.95953   0.97099   0.99169   0.99654
 Alpha virt. eigenvalues --    1.00476   1.00889   1.02951   1.04446   1.09248
 Alpha virt. eigenvalues --    1.10761   1.12258   1.12975   1.13806   1.14264
 Alpha virt. eigenvalues --    1.15089   1.16563   1.17188   1.19678   1.19868
 Alpha virt. eigenvalues --    1.20784   1.21928   1.22396   1.22859   1.23052
 Alpha virt. eigenvalues --    1.24183   1.24952   1.25261   1.26454   1.27380
 Alpha virt. eigenvalues --    1.28529   1.30049   1.32997   1.36904   1.42325
 Alpha virt. eigenvalues --    1.46255   1.49958   1.54263   1.60823   1.62814
 Alpha virt. eigenvalues --    1.65729   1.69156   1.70555   1.70912   1.79451
 Alpha virt. eigenvalues --    1.80899   1.83315   1.84271   1.99416   2.00687
 Alpha virt. eigenvalues --    2.00850   2.09840   2.10048   2.11376   2.18696
 Alpha virt. eigenvalues --    2.20981   2.21766   2.22661   2.25349   2.26979
 Alpha virt. eigenvalues --    2.28705   2.29467   2.31493   2.32584   2.34801
 Alpha virt. eigenvalues --    2.37409   2.39852   2.42453   2.43406   2.44528
 Alpha virt. eigenvalues --    2.48517   2.54003   2.56891   2.59314   2.64332
 Alpha virt. eigenvalues --    2.65597   2.67093   2.69306   2.69955   2.72447
 Alpha virt. eigenvalues --    2.76487   2.82356   2.83883   2.85410   2.87201
 Alpha virt. eigenvalues --    2.90034   2.91076   3.00161   3.00232   3.01468
 Alpha virt. eigenvalues --    3.14851   3.17170   3.17462   3.30998   3.31099
 Alpha virt. eigenvalues --    4.18763   4.20803   4.21067   4.54764   4.66642
 Alpha virt. eigenvalues --    4.67405   4.73160   4.90146   4.90817   4.96128
          Condensed to atoms (all electrons):
               1          2          3          4          5          6
     1  N    7.082574   0.255369  -0.063984   0.002743  -0.000094   0.000002
     2  C    0.255369   4.916764   0.359896  -0.054928   0.004498  -0.000023
     3  C   -0.063984   0.359896   4.957110   0.239395  -0.041939  -0.004550
     4  N    0.002743  -0.054928   0.239395   7.297286   0.234523  -0.053268
     5  C   -0.000094   0.004498  -0.041939   0.234523   4.966646   0.356208
     6  C    0.000002  -0.000023  -0.004550  -0.053268   0.356208   4.917592
     7  N   -0.000000  -0.000000  -0.000062   0.002847  -0.062841   0.252270
     8  C   -0.000046  -0.005037  -0.044255   0.234775  -0.041779   0.004427
     9  C   -0.000000   0.000051   0.004372  -0.053301  -0.004528  -0.000053
    10  N    0.000000  -0.000001  -0.000100   0.002848  -0.000071   0.000000
    11  H    0.331421  -0.032126   0.005385  -0.000100   0.000003  -0.000000
    12  H    0.325545  -0.032233  -0.003722  -0.000095  -0.000005   0.000000
    13  H   -0.045475   0.399639  -0.055987   0.007354  -0.000472   0.000140
    14  H   -0.040317   0.405043  -0.035857  -0.001417  -0.000078  -0.000011
    15  H    0.007443  -0.051418   0.391365  -0.045237  -0.003141   0.000066
    16  H   -0.000770  -0.042519   0.406229  -0.041303  -0.004283  -0.001022
    17  H    0.000001  -0.000123   0.004197  -0.037455   0.403689  -0.039632
    18  H    0.000011  -0.000250  -0.005849  -0.049199   0.393519  -0.056387
    19  H    0.000000  -0.000080  -0.000574   0.001992  -0.055159   0.406720
    20  H    0.000000  -0.000036   0.000148   0.003224  -0.035715   0.398975
    21  H    0.000000  -0.000000   0.000025  -0.000133  -0.003735  -0.031594
    22  H   -0.000000  -0.000000   0.000001  -0.000100   0.005385  -0.032557
    23  H   -0.000061  -0.001381  -0.003421  -0.037212   0.004312  -0.000122
    24  H    0.000008   0.000035  -0.002122  -0.049131  -0.006727  -0.000253
    25  H   -0.000000  -0.000016  -0.000084   0.001722  -0.000120  -0.000123
    26  H    0.000001   0.000153  -0.000384   0.003214   0.000124  -0.000031
    27  H    0.000000   0.000000  -0.000002  -0.000133   0.000027  -0.000000
    28  H    0.000000  -0.000000   0.000003  -0.000101   0.000001  -0.000000
               7          8          9         10         11         12
     1  N   -0.000000  -0.000046  -0.000000   0.000000   0.331421   0.325545
     2  C   -0.000000  -0.005037   0.000051  -0.000001  -0.032126  -0.032233
     3  C   -0.000062  -0.044255   0.004372  -0.000100   0.005385  -0.003722
     4  N    0.002847   0.234775  -0.053301   0.002848  -0.000100  -0.000095
     5  C   -0.062841  -0.041779  -0.004528  -0.000071   0.000003  -0.000005
     6  C    0.252270   0.004427  -0.000053   0.000000  -0.000000   0.000000
     7  N    7.087287  -0.000103   0.000001  -0.000000   0.000000   0.000000
     8  C   -0.000103   4.968089   0.355471  -0.062866   0.000003  -0.000001
     9  C    0.000001   0.355471   4.918747   0.252643  -0.000000  -0.000000
    10  N   -0.000000  -0.062866   0.252643   7.086489   0.000000   0.000000
    11  H    0.000000   0.000003  -0.000000   0.000000   0.389506  -0.026881
    12  H    0.000000  -0.000001  -0.000000   0.000000  -0.026881   0.404113
    13  H    0.000001   0.000164  -0.000039   0.000001  -0.001331  -0.003361
    14  H    0.000000   0.000356  -0.000103  -0.000007  -0.004379   0.004827
    15  H    0.000009  -0.005627  -0.000228   0.000013  -0.000222  -0.000093
    16  H   -0.000118   0.004713  -0.000136   0.000001  -0.000143   0.002843
    17  H    0.004383  -0.003827  -0.000962  -0.000110  -0.000000  -0.000000
    18  H    0.002127  -0.002763   0.000046   0.000009  -0.000000   0.000001
    19  H   -0.047972  -0.000078  -0.000015   0.000000  -0.000000  -0.000010
    20  H   -0.038598  -0.000427   0.000174   0.000000  -0.000000   0.000000
    21  H    0.324610  -0.000002   0.000000   0.000000  -0.000000   0.000000
    22  H    0.331302   0.000003  -0.000000   0.000000  -0.000000  -0.000000
    23  H    0.000001   0.403957  -0.039265   0.004389   0.000009  -0.000002
    24  H    0.000014   0.394130  -0.056195   0.002061  -0.000000   0.000000
    25  H   -0.000004  -0.054513   0.407489  -0.047446   0.000000  -0.000000
    26  H    0.000001  -0.035961   0.398727  -0.038771  -0.000000   0.000000
    27  H    0.000000  -0.003788  -0.031637   0.324620  -0.000000  -0.000000
    28  H    0.000000   0.005408  -0.032647   0.331263  -0.000000  -0.000000
              13         14         15         16         17         18
     1  N   -0.045475  -0.040317   0.007443  -0.000770   0.000001   0.000011
     2  C    0.399639   0.405043  -0.051418  -0.042519  -0.000123  -0.000250
     3  C   -0.055987  -0.035857   0.391365   0.406229   0.004197  -0.005849
     4  N    0.007354  -0.001417  -0.045237  -0.041303  -0.037455  -0.049199
     5  C   -0.000472  -0.000078  -0.003141  -0.004283   0.403689   0.393519
     6  C    0.000140  -0.000011   0.000066  -0.001022  -0.039632  -0.056387
     7  N    0.000001   0.000000   0.000009  -0.000118   0.004383   0.002127
     8  C    0.000164   0.000356  -0.005627   0.004713  -0.003827  -0.002763
     9  C   -0.000039  -0.000103  -0.000228  -0.000136  -0.000962   0.000046
    10  N    0.000001  -0.000007   0.000013   0.000001  -0.000110   0.000009
    11  H   -0.001331  -0.004379  -0.000222  -0.000143  -0.000000  -0.000000
    12  H   -0.003361   0.004827  -0.000093   0.002843  -0.000000   0.000001
    13  H    0.590356  -0.036896   0.005432  -0.004415   0.000003   0.000040
    14  H   -0.036896   0.544071  -0.003808   0.004206   0.000003   0.000001
    15  H    0.005432  -0.003808   0.571639  -0.033554  -0.000155   0.004751
    16  H   -0.004415   0.004206  -0.033554   0.561429   0.000269  -0.001290
    17  H    0.000003   0.000003  -0.000155   0.000269   0.525082  -0.033190
    18  H    0.000040   0.000001   0.004751  -0.001290  -0.033190   0.607547
    19  H    0.000258  -0.000007   0.000132   0.000875   0.004793  -0.003060
    20  H    0.000028   0.000002   0.000013   0.000032  -0.005433   0.004856
    21  H   -0.000000   0.000000  -0.000001   0.000009  -0.000109   0.003261
    22  H   -0.000000  -0.000000  -0.000000   0.000003  -0.000196  -0.000154
    23  H   -0.000004   0.000809  -0.001178   0.000255   0.000258  -0.000170
    24  H    0.000020   0.000089   0.004578  -0.000198  -0.001152   0.004876
    25  H    0.000005  -0.000008   0.000003   0.000004   0.000874   0.000139
    26  H    0.000045   0.000156   0.000034   0.000000   0.000038   0.000013
    27  H    0.000000   0.000000   0.000000  -0.000000   0.000010  -0.000001
    28  H   -0.000000  -0.000000  -0.000000  -0.000000   0.000003  -0.000000
              19         20         21         22         23         24
     1  N    0.000000   0.000000   0.000000  -0.000000  -0.000061   0.000008
     2  C   -0.000080  -0.000036  -0.000000  -0.000000  -0.001381   0.000035
     3  C   -0.000574   0.000148   0.000025   0.000001  -0.003421  -0.002122
     4  N    0.001992   0.003224  -0.000133  -0.000100  -0.037212  -0.049131
     5  C   -0.055159  -0.035715  -0.003735   0.005385   0.004312  -0.006727
     6  C    0.406720   0.398975  -0.031594  -0.032557  -0.000122  -0.000253
     7  N   -0.047972  -0.038598   0.324610   0.331302   0.000001   0.000014
     8  C   -0.000078  -0.000427  -0.000002   0.000003   0.403957   0.394130
     9  C   -0.000015   0.000174   0.000000  -0.000000  -0.039265  -0.056195
    10  N    0.000000   0.000000   0.000000   0.000000   0.004389   0.002061
    11  H   -0.000000  -0.000000  -0.000000  -0.000000   0.000009  -0.000000
    12  H   -0.000010   0.000000   0.000000  -0.000000  -0.000002   0.000000
    13  H    0.000258   0.000028  -0.000000  -0.000000  -0.000004   0.000020
    14  H   -0.000007   0.000002   0.000000  -0.000000   0.000809   0.000089
    15  H    0.000132   0.000013  -0.000001  -0.000000  -0.001178   0.004578
    16  H    0.000875   0.000032   0.000009   0.000003   0.000255  -0.000198
    17  H    0.004793  -0.005433  -0.000109  -0.000196   0.000258  -0.001152
    18  H   -0.003060   0.004856   0.003261  -0.000154  -0.000170   0.004876
    19  H    0.601204  -0.038256  -0.003012  -0.001460   0.000004   0.000002
    20  H   -0.038256   0.541128   0.004723  -0.003885   0.000001   0.000037
    21  H   -0.003012   0.004723   0.402145  -0.026692  -0.000000   0.000000
    22  H   -0.001460  -0.003885  -0.026692   0.390192  -0.000000  -0.000000
    23  H    0.000004   0.000001  -0.000000  -0.000000   0.520215  -0.032970
    24  H    0.000002   0.000037   0.000000  -0.000000  -0.032970   0.606229
    25  H   -0.000013   0.000294   0.000000  -0.000000   0.004691  -0.003019
    26  H    0.000003   0.000017   0.000000  -0.000000  -0.005363   0.004850
    27  H    0.000000  -0.000000  -0.000000  -0.000000  -0.000107   0.003247
    28  H   -0.000000  -0.000000  -0.000000  -0.000000  -0.000196  -0.000154
              25         26         27         28
     1  N   -0.000000   0.000001   0.000000   0.000000
     2  C   -0.000016   0.000153   0.000000  -0.000000
     3  C   -0.000084  -0.000384  -0.000002   0.000003
     4  N    0.001722   0.003214  -0.000133  -0.000101
     5  C   -0.000120   0.000124   0.000027   0.000001
     6  C   -0.000123  -0.000031  -0.000000  -0.000000
     7  N   -0.000004   0.000001   0.000000   0.000000
     8  C   -0.054513  -0.035961  -0.003788   0.005408
     9  C    0.407489   0.398727  -0.031637  -0.032647
    10  N   -0.047446  -0.038771   0.324620   0.331263
    11  H    0.000000  -0.000000  -0.000000  -0.000000
    12  H   -0.000000   0.000000  -0.000000  -0.000000
    13  H    0.000005   0.000045   0.000000  -0.000000
    14  H   -0.000008   0.000156   0.000000  -0.000000
    15  H    0.000003   0.000034   0.000000  -0.000000
    16  H    0.000004   0.000000  -0.000000  -0.000000
    17  H    0.000874   0.000038   0.000010   0.000003
    18  H    0.000139   0.000013  -0.000001  -0.000000
    19  H   -0.000013   0.000003   0.000000  -0.000000
    20  H    0.000294   0.000017  -0.000000  -0.000000
    21  H    0.000000   0.000000  -0.000000  -0.000000
    22  H   -0.000000  -0.000000  -0.000000  -0.000000
    23  H    0.004691  -0.005363  -0.000107  -0.000196
    24  H   -0.003019   0.004850   0.003247  -0.000154
    25  H    0.593433  -0.037948  -0.002980  -0.001458
    26  H   -0.037948   0.543050   0.004740  -0.003899
    27  H   -0.002980   0.004740   0.402064  -0.026714
    28  H   -0.001458  -0.003899  -0.026714   0.390583
 Mulliken charges:
               1
     1  N   -0.854370
     2  C   -0.121277
     3  C   -0.105233
     4  N   -0.608810
     5  C   -0.108247
     6  C   -0.116774
     7  N   -0.855153
     8  C   -0.110423
     9  C   -0.118614
    10  N   -0.854967
    11  H    0.338854
    12  H    0.329074
    13  H    0.144495
    14  H    0.163325
    15  H    0.159184
    16  H    0.148882
    17  H    0.178743
    18  H    0.131116
    19  H    0.133714
    20  H    0.168696
    21  H    0.330503
    22  H    0.338158
    23  H    0.182550
    24  H    0.131745
    25  H    0.139078
    26  H    0.167190
    27  H    0.330654
    28  H    0.337906
 Sum of Mulliken charges =  -0.00000
 Mulliken charges with hydrogens summed into heavy atoms:
               1
     1  N   -0.186442
     2  C    0.186543
     3  C    0.202832
     4  N   -0.608810
     5  C    0.201612
     6  C    0.185636
     7  N   -0.186492
     8  C    0.203873
     9  C    0.187655
    10  N   -0.186407
 DipInt: DoE/N= T F RetVal/Mat= T F Init=T NMatP=  1 IDeriv=0 Min/MaxMlt=  0  4
 Entering OneElI...
 OneElI was handed  5100182175 working-precision words.
 Multipole integrals L=0 to 4 MinM= 0 MaxM= 0.
 Requested accuracy = 0.1000D-12
 ShPair: Thresh= 1.00D-13 NBox=     0 BxSize= 0.00D+00 RnKept= 1.51D+01
         NSMCal=                 2926 NSMKep=                2640
 PrmmSu-InSpLW:  IPartL=    0 NPrtUS=    1 NPrtUL=    1 DoSpLW=F IThBeg=    0 IThEnd=    0 NThAct=    1.
 PrsmSu:  NPrtUS=   1 ThrOK=F IAlg=1 NPAlg=1 LenDen=           0 ISkipM=0 DoSpLW=F IThBeg=    0 IThEnd=    0.
 Prism:   IPart=     0 DynPar=F LinDyn=F Incr=          26.
 PRISM was handed  5099973189 working-precision words and  2640 shell-pairs
 IPart=  0 NShTot=        2640 NBatch=          42 AvBLen=        62.9
 PrsmSu-ThDecC:  IPartSL=    0    0 NPrtUSL=    1    1 IThBeg=    0 IThEnd=    0 CPU=   -1 GPU=   -1 NThAct=    1.
 PrSmSu:  NxtVal=             27.
 Electronic moments (au):
        -82.00000000         -0.44046632          0.49056522         -0.47428571
      -1135.01400993      -1123.19269546       -140.41501101         -1.42717413
          2.12059334          2.92088993      -1907.35658209      -2465.06227755
         -6.99142554       1920.44492867       2502.34695701        173.52421681
        -14.18163140        -13.25261712        198.50145498         -5.05967658
     -38919.57883950     -37840.43569263       -912.86658906       -125.64642073
        544.06507249        -24.82461162        321.68153743          8.67887829
          7.94573899     -12630.08707165      -1584.72237503      -1573.39535415
       -278.68142501       -509.98944564         65.34468204
 Electronic spatial extent (au):  <R**2>=           2398.6217
 DipInt: DoE/N= F T RetVal/Mat= T F Init=T NMatP=  1 IDeriv=0 Min/MaxMlt=  0  4
 Nuclear    moments (au):
         82.00000000          0.00000000          0.00000000         -0.00000000
       1094.15717370       1071.80188050         92.62504501          0.00000000
          0.00000000          0.00000000       1924.54433563       2468.30593096
          4.39055316      -1977.76895206      -2481.44987768       -196.07968795
         23.68792229         22.86919851       -229.43554498         -8.61247612
      35762.31044491      34072.70176446        424.38665406        237.47670352
       -495.68452273       -124.16025756       -286.41174322         -2.98939247
          1.11159685      11328.57093555        895.04544817        892.99480049
        424.29816041        593.96474242       -116.22740447
 Total      moments (au):
         -0.00000000         -0.44046632          0.49056522         -0.47428571
        -40.85683622        -51.39081497        -47.78996600         -1.42717413
          2.12059334          2.92088993         17.18775354          3.24365340
         -2.60087237        -57.32402339         20.89707933        -22.55547114
          9.50629089          9.61658139        -30.93409000        -13.67215270
      -3157.26839459      -3767.73392817       -488.47993500        111.83028279
         48.38054976       -148.98486918         35.26979421          5.68948582
          9.05733584      -1301.51613610       -689.67692686       -680.40055366
        145.61673540         83.97529678        -50.88272243
 Traceless Quadrup. (au):
          5.82236951         -4.71160923         -1.11076027         -1.42717413
          2.12059334          2.92088993
 Charge=             -0.0000 electrons
 Dipole moment (field-independent basis, Debye):
    X=             -1.1196    Y=              1.2469    Z=             -1.2055  Tot=              2.0643
 Quadrupole moment (field-independent basis, Debye-Ang):
   XX=            -54.9538   YY=            -69.1224   ZZ=            -64.2791
   XY=             -1.9196   XZ=              2.8523   YZ=              3.9287
 Traceless Quadrupole moment (field-independent basis, Debye-Ang):
   XX=              7.8313   YY=             -6.3373   ZZ=             -1.4940
   XY=             -1.9196   XZ=              2.8523   YZ=              3.9287
 Octapole moment (field-independent basis, Debye-Ang**2):
  XXX=             12.2336  YYY=              2.3087  ZZZ=             -1.8512  XYY=            -40.8010
  XXY=             14.8737  XXZ=            -16.0541  XZZ=              6.7662  YZZ=              6.8447
  YYZ=            -22.0177  XYZ=             -9.7313
 Hexadecapole moment (field-independent basis, Debye-Ang**3):
 XXXX=          -1189.1787 YYYY=          -1419.1093 ZZZZ=           -183.9850 XXXY=             42.1206
 XXXZ=             18.2224 YYYX=            -56.1148 YYYZ=             13.2843 ZZZX=              2.1429
 ZZZY=              3.4114 XXYY=           -490.2134 XXZZ=           -259.7654 YYZZ=           -256.2715
 XXYZ=             54.8462 YYXZ=             31.6291 ZZXY=            -19.1649
 N-N= 5.740612370534D+02 E-N=-2.211890334489D+03  KE= 4.544872912608D+02
 Entering OneElI...
 OneElI was handed  5100198652 working-precision words.
 Calculate electrostatic properties
    NBasis =   186  MinDer = 0  MaxDer = 0
    NGrid  =    28  NMatD  =   1
 Requested accuracy = 0.1000D-12
 PrtBox:  NBox=     1 Levels=  1 BoxLen=   29.89 SMaxX=       15.03
          Shift=            6.873690            6.340904            2.785638
 Box      1 Number                   0 centers from      1 to     76:
 ShPair: Thresh= 1.00D-13 NBox=     1 BxSize= 2.99D+01 RnKept= 1.51D+01
         NSMCal=                 2926 NSMKep=                2448
 PrmmSu-InSpLW:  IPartL=    0 NPrtUS=   40 NPrtUL=    1 DoSpLW=F IThBeg=    0 IThEnd=   39 NThAct=   40.
 PrsmSu:  NPrtUS=  40 ThrOK=T IAlg=1 NPAlg=1 LenDen=           0 ISkipM=0 DoSpLW=F IThBeg=    0 IThEnd=   39.
 Prism:   IPart=     0 DynPar=F LinDyn=F Incr=          17.
 PRISM was handed   127430252 working-precision words and  2448 shell-pairs
 PRISM was handed   127430252 working-precision words and  2448 shell-pairs
 PRISM was handed   127430252 working-precision words and  2448 shell-pairs
 PRISM was handed   127430252 working-precision words and  2448 shell-pairs
 PRISM was handed   127430252 working-precision words and  2448 shell-pairs
 PRISM was handed   127430252 working-precision words and  2448 shell-pairs
 PRISM was handed   127430252 working-precision words and  2448 shell-pairs
 PRISM was handed   127430252 working-precision words and  2448 shell-pairs
 PRISM was handed   127430252 working-precision words and  2448 shell-pairs
 PRISM was handed   127430252 working-precision words and  2448 shell-pairs
 PRISM was handed   127430252 working-precision words and  2448 shell-pairs
 PRISM was handed   127430252 working-precision words and  2448 shell-pairs
 PRISM was handed   127430252 working-precision words and  2448 shell-pairs
 PRISM was handed   127430252 working-precision words and  2448 shell-pairs
 PRISM was handed   127430252 working-precision words and  2448 shell-pairs
 PRISM was handed   127430252 working-precision words and  2448 shell-pairs
 PRISM was handed   127430252 working-precision words and  2448 shell-pairs
 PRISM was handed   127430252 working-precision words and  2448 shell-pairs
 PRISM was handed   127430252 working-precision words and  2448 shell-pairs
 PRISM was handed   127430252 working-precision words and  2448 shell-pairs
 PRISM was handed   127430252 working-precision words and  2448 shell-pairs
 PRISM was handed   127430252 working-precision words and  2448 shell-pairs
 PRISM was handed   127430252 working-precision words and  2448 shell-pairs
 PRISM was handed   127430252 working-precision words and  2448 shell-pairs
 PRISM was handed   127430252 working-precision words and  2448 shell-pairs
 PRISM was handed   127430252 working-precision words and  2448 shell-pairs
 PRISM was handed   127430252 working-precision words and  2448 shell-pairs
 PRISM was handed   127430252 working-precision words and  2448 shell-pairs
 PRISM was handed   127430252 working-precision words and  2448 shell-pairs
 PRISM was handed   127430252 working-precision words and  2448 shell-pairs
 PRISM was handed   127430252 working-precision words and  2448 shell-pairs
 PRISM was handed   127430252 working-precision words and  2448 shell-pairs
 PRISM was handed   127430252 working-precision words and  2448 shell-pairs
 PRISM was handed   127430252 working-precision words and  2448 shell-pairs
 PRISM was handed   127430252 working-precision words and  2448 shell-pairs
 PRISM was handed   127430252 working-precision words and  2448 shell-pairs
 PRISM was handed   127430252 working-precision words and  2448 shell-pairs
 PRISM was handed   127430252 working-precision words and  2448 shell-pairs
 PRISM was handed   127430252 working-precision words and  2448 shell-pairs
 PRISM was handed   127430252 working-precision words and  2448 shell-pairs
 IPart= 25 NShTot=        1456 NBatch=          52 AvBLen=        28.0
 PrsmSu-ThDecC:  IPartSL=   25    0 NPrtUSL=   40    1 IThBeg=    0 IThEnd=   39 CPU=   -1 GPU=   -1 NThAct=   40.
 IPart= 35 NShTot=        1344 NBatch=          48 AvBLen=        28.0
 PrsmSu-ThDecC:  IPartSL=   35    0 NPrtUSL=   40    1 IThBeg=    0 IThEnd=   39 CPU=   -1 GPU=   -1 NThAct=   39.
 IPart= 18 NShTot=        1624 NBatch=          58 AvBLen=        28.0
 PrsmSu-ThDecC:  IPartSL=   18    0 NPrtUSL=   40    1 IThBeg=    0 IThEnd=   39 CPU=   -1 GPU=   -1 NThAct=   38.
 IPart=  6 NShTot=        2156 NBatch=          77 AvBLen=        28.0
 PrsmSu-ThDecC:  IPartSL=    6    0 NPrtUSL=   40    1 IThBeg=    0 IThEnd=   39 CPU=   -1 GPU=   -1 NThAct=   37.
 IPart=  0 NShTot=        2352 NBatch=          84 AvBLen=        28.0
 IPart=  1 NShTot=        2352 NBatch=          84 AvBLen=        28.0
 PrsmSu-ThDecC:  IPartSL=    0    0 NPrtUSL=   40    1 IThBeg=    0 IThEnd=   39 CPU=   -1 GPU=   -1 NThAct=   36.
 PrsmSu-ThDecC:  IPartSL=    1    0 NPrtUSL=   40    1 IThBeg=    0 IThEnd=   39 CPU=   -1 GPU=   -1 NThAct=   35.
 IPart=  2 NShTot=        2324 NBatch=          83 AvBLen=        28.0
 PrsmSu-ThDecC:  IPartSL=    2    0 NPrtUSL=   40    1 IThBeg=    0 IThEnd=   39 CPU=   -1 GPU=   -1 NThAct=   34.
 IPart=  8 NShTot=        2072 NBatch=          74 AvBLen=        28.0
 PrsmSu-ThDecC:  IPartSL=    8    0 NPrtUSL=   40    1 IThBeg=    0 IThEnd=   39 CPU=   -1 GPU=   -1 NThAct=   33.
 IPart=  4 NShTot=        2240 NBatch=          80 AvBLen=        28.0
 PrsmSu-ThDecC:  IPartSL=    4    0 NPrtUSL=   40    1 IThBeg=    0 IThEnd=   39 CPU=   -1 GPU=   -1 NThAct=   32.
 IPart= 11 NShTot=        1904 NBatch=          68 AvBLen=        28.0
 PrsmSu-ThDecC:  IPartSL=   11    0 NPrtUSL=   40    1 IThBeg=    0 IThEnd=   39 CPU=   -1 GPU=   -1 NThAct=   31.
 IPart=  9 NShTot=        2016 NBatch=          72 AvBLen=        28.0
 PrsmSu-ThDecC:  IPartSL=    9    0 NPrtUSL=   40    1 IThBeg=    0 IThEnd=   39 CPU=   -1 GPU=   -1 NThAct=   30.
 IPart= 32 NShTot=        1428 NBatch=          51 AvBLen=        28.0
 PrsmSu-ThDecC:  IPartSL=   32    0 NPrtUSL=   40    1 IThBeg=    0 IThEnd=   39 CPU=   -1 GPU=   -1 NThAct=   29.
 IPart= 23 NShTot=        1512 NBatch=          54 AvBLen=        28.0
 PrsmSu-ThDecC:  IPartSL=   23    0 NPrtUSL=   40    1 IThBeg=    0 IThEnd=   39 CPU=   -1 GPU=   -1 NThAct=   28.
 IPart= 36 NShTot=        1344 NBatch=          48 AvBLen=        28.0
 PrsmSu-ThDecC:  IPartSL=   36    0 NPrtUSL=   40    1 IThBeg=    0 IThEnd=   39 CPU=   -1 GPU=   -1 NThAct=   27.
 IPart= 28 NShTot=        1456 NBatch=          52 AvBLen=        28.0
 PrsmSu-ThDecC:  IPartSL=   28    0 NPrtUSL=   40    1 IThBeg=    0 IThEnd=   39 CPU=   -1 GPU=   -1 NThAct=   26.
 IPart= 26 NShTot=        1456 NBatch=          52 AvBLen=        28.0
 PrsmSu-ThDecC:  IPartSL=   26    0 NPrtUSL=   40    1 IThBeg=    0 IThEnd=   39 CPU=   -1 GPU=   -1 NThAct=   25.
 IPart= 31 NShTot=        1456 NBatch=          52 AvBLen=        28.0
 PrsmSu-ThDecC:  IPartSL=   31    0 NPrtUSL=   40    1 IThBeg=    0 IThEnd=   39 CPU=   -1 GPU=   -1 NThAct=   24.
 IPart= 17 NShTot=        1764 NBatch=          63 AvBLen=        28.0
 PrsmSu-ThDecC:  IPartSL=   17    0 NPrtUSL=   40    1 IThBeg=    0 IThEnd=   39 CPU=   -1 GPU=   -1 NThAct=   23.
 IPart= 22 NShTot=        1540 NBatch=          55 AvBLen=        28.0
 PrsmSu-ThDecC:  IPartSL=   22    0 NPrtUSL=   40    1 IThBeg=    0 IThEnd=   39 CPU=   -1 GPU=   -1 NThAct=   22.
 IPart= 30 NShTot=        1456 NBatch=          52 AvBLen=        28.0
 PrsmSu-ThDecC:  IPartSL=   30    0 NPrtUSL=   40    1 IThBeg=    0 IThEnd=   39 CPU=   -1 GPU=   -1 NThAct=   21.
 IPart= 29 NShTot=        1456 NBatch=          52 AvBLen=        28.0
 PrsmSu-ThDecC:  IPartSL=   29    0 NPrtUSL=   40    1 IThBeg=    0 IThEnd=   39 CPU=   -1 GPU=   -1 NThAct=   20.
 IPart= 16 NShTot=        1764 NBatch=          63 AvBLen=        28.0
 PrsmSu-ThDecC:  IPartSL=   16    0 NPrtUSL=   40    1 IThBeg=    0 IThEnd=   39 CPU=   -1 GPU=   -1 NThAct=   19.
 IPart= 20 NShTot=        1568 NBatch=          56 AvBLen=        28.0
 PrsmSu-ThDecC:  IPartSL=   20    0 NPrtUSL=   40    1 IThBeg=    0 IThEnd=   39 CPU=   -1 GPU=   -1 NThAct=   18.
 IPart= 37 NShTot=        1344 NBatch=          48 AvBLen=        28.0
 PrsmSu-ThDecC:  IPartSL=   37    0 NPrtUSL=   40    1 IThBeg=    0 IThEnd=   39 CPU=   -1 GPU=   -1 NThAct=   17.
 IPart=  5 NShTot=        2240 NBatch=          80 AvBLen=        28.0
 PrsmSu-ThDecC:  IPartSL=    5    0 NPrtUSL=   40    1 IThBeg=    0 IThEnd=   39 CPU=   -1 GPU=   -1 NThAct=   16.
 IPart= 24 NShTot=        1456 NBatch=          52 AvBLen=        28.0
 PrsmSu-ThDecC:  IPartSL=   24    0 NPrtUSL=   40    1 IThBeg=    0 IThEnd=   39 CPU=   -1 GPU=   -1 NThAct=   15.
 IPart= 14 NShTot=        1792 NBatch=          64 AvBLen=        28.0
 PrsmSu-ThDecC:  IPartSL=   14    0 NPrtUSL=   40    1 IThBeg=    0 IThEnd=   39 CPU=   -1 GPU=   -1 NThAct=   14.
 IPart= 33 NShTot=        1428 NBatch=          51 AvBLen=        28.0
 PrsmSu-ThDecC:  IPartSL=   33    0 NPrtUSL=   40    1 IThBeg=    0 IThEnd=   39 CPU=   -1 GPU=   -1 NThAct=   13.
 IPart= 34 NShTot=        1372 NBatch=          49 AvBLen=        28.0
 PrsmSu-ThDecC:  IPartSL=   34    0 NPrtUSL=   40    1 IThBeg=    0 IThEnd=   39 CPU=   -1 GPU=   -1 NThAct=   12.
 IPart= 10 NShTot=        1932 NBatch=          69 AvBLen=        28.0
 PrsmSu-ThDecC:  IPartSL=   10    0 NPrtUSL=   40    1 IThBeg=    0 IThEnd=   39 CPU=   -1 GPU=   -1 NThAct=   11.
 IPart= 15 NShTot=        1764 NBatch=          63 AvBLen=        28.0
 PrsmSu-ThDecC:  IPartSL=   15    0 NPrtUSL=   40    1 IThBeg=    0 IThEnd=   39 CPU=   -1 GPU=   -1 NThAct=   10.
 IPart= 39 NShTot=        1316 NBatch=          47 AvBLen=        28.0
 PrsmSu-ThDecC:  IPartSL=   39    0 NPrtUSL=   40    1 IThBeg=    0 IThEnd=   39 CPU=   -1 GPU=   -1 NThAct=    9.
 IPart=  7 NShTot=        2072 NBatch=          74 AvBLen=        28.0
 PrsmSu-ThDecC:  IPartSL=    7    0 NPrtUSL=   40    1 IThBeg=    0 IThEnd=   39 CPU=   -1 GPU=   -1 NThAct=    8.
 IPart= 21 NShTot=        1540 NBatch=          55 AvBLen=        28.0
 PrsmSu-ThDecC:  IPartSL=   21    0 NPrtUSL=   40    1 IThBeg=    0 IThEnd=   39 CPU=   -1 GPU=   -1 NThAct=    7.
 IPart= 38 NShTot=        1316 NBatch=          47 AvBLen=        28.0
 PrsmSu-ThDecC:  IPartSL=   38    0 NPrtUSL=   40    1 IThBeg=    0 IThEnd=   39 CPU=   -1 GPU=   -1 NThAct=    6.
 IPart= 19 NShTot=        1624 NBatch=          58 AvBLen=        28.0
 PrsmSu-ThDecC:  IPartSL=   19    0 NPrtUSL=   40    1 IThBeg=    0 IThEnd=   39 CPU=   -1 GPU=   -1 NThAct=    5.
 IPart= 13 NShTot=        1792 NBatch=          64 AvBLen=        28.0
 PrsmSu-ThDecC:  IPartSL=   13    0 NPrtUSL=   40    1 IThBeg=    0 IThEnd=   39 CPU=   -1 GPU=   -1 NThAct=    4.
 IPart= 27 NShTot=        1456 NBatch=          52 AvBLen=        28.0
 PrsmSu-ThDecC:  IPartSL=   27    0 NPrtUSL=   40    1 IThBeg=    0 IThEnd=   39 CPU=   -1 GPU=   -1 NThAct=    3.
 IPart=  3 NShTot=        2268 NBatch=          81 AvBLen=        28.0
 PrsmSu-ThDecC:  IPartSL=    3    0 NPrtUSL=   40    1 IThBeg=    0 IThEnd=   39 CPU=   -1 GPU=   -1 NThAct=    2.
 IPart= 12 NShTot=        1792 NBatch=          64 AvBLen=        28.0
 PrsmSu-ThDecC:  IPartSL=   12    0 NPrtUSL=   40    1 IThBeg=    0 IThEnd=   39 CPU=   -1 GPU=   -1 NThAct=    1.
 PrSmSu:  NxtVal=            681.
 --------------------------------------------------------
       Center         ----      EFG at Nuclei      ----
                      3XX-RR        3YY-RR        3ZZ-RR
 --------------------------------------------------------
     1   Atom       -0.558861     -0.448089      1.006950
     2   Atom       -0.111668      0.060454      0.051215
     3   Atom       -0.111541      0.055602      0.055938
     4   Atom       -0.627014     -0.630145      1.257160
     5   Atom        0.112283     -0.141834      0.029551
     6   Atom        0.086663     -0.151607      0.064943
     7   Atom        0.945944     -0.484980     -0.460964
     8   Atom       -0.078939      0.048225      0.030714
     9   Atom       -0.091633      0.029967      0.061666
    10   Atom       -0.469489      0.927688     -0.458200
    11   Atom        0.149578     -0.223453      0.073875
    12   Atom       -0.190017     -0.032430      0.222447
    13   Atom        0.137055      0.088084     -0.225139
    14   Atom       -0.092120     -0.062312      0.154432
    15   Atom        0.132172      0.091984     -0.224156
    16   Atom       -0.104057     -0.052721      0.156778
    17   Atom       -0.250312      0.096016      0.154296
    18   Atom        0.088674      0.124007     -0.212681
    19   Atom       -0.224029      0.083838      0.140191
    20   Atom        0.061274      0.141301     -0.202575
    21   Atom        0.045786      0.164619     -0.210405
    22   Atom        0.138996     -0.041974     -0.097022
    23   Atom        0.121091     -0.275404      0.154313
    24   Atom        0.099154      0.113198     -0.212352
    25   Atom        0.125954     -0.265415      0.139462
    26   Atom        0.114277      0.087081     -0.201358
    27   Atom        0.095679      0.112661     -0.208340
    28   Atom       -0.135903      0.232270     -0.096366
 --------------------------------------------------------
                        XY            XZ            YZ
 --------------------------------------------------------
     1   Atom       -0.070934      0.201806     -0.323129
     2   Atom       -0.105317      0.073758      0.023388
     3   Atom       -0.091763      0.080166      0.020412
     4   Atom       -0.001637      0.010165      0.008262
     5   Atom       -0.003908     -0.010381     -0.086663
     6   Atom       -0.003483     -0.017350     -0.091708
     7   Atom        0.389226      0.290280      0.045029
     8   Atom        0.114401     -0.072721      0.051836
     9   Atom        0.104438     -0.070872      0.059975
    10   Atom        0.415676     -0.105879     -0.279244
    11   Atom       -0.088600     -0.046494     -0.269157
    12   Atom        0.265765     -0.060793      0.037797
    13   Atom        0.010421     -0.033757      0.143488
    14   Atom        0.214125      0.003581     -0.005755
    15   Atom        0.008692     -0.031105      0.135641
    16   Atom        0.209915     -0.000273      0.000112
    17   Atom       -0.128517     -0.008678     -0.004636
    18   Atom        0.019230      0.139038     -0.043127
    19   Atom       -0.137228     -0.051340     -0.018132
    20   Atom        0.008613      0.178654     -0.012546
    21   Atom        0.046710      0.279669     -0.039429
    22   Atom        0.160023     -0.147282      0.242185
    23   Atom       -0.084347      0.000159      0.011647
    24   Atom       -0.025145     -0.105991     -0.101349
    25   Atom       -0.062633      0.009998      0.055116
    26   Atom       -0.039150     -0.098963     -0.150460
    27   Atom       -0.075580     -0.171775     -0.225222
    28   Atom       -0.003319      0.283242      0.007369
 --------------------------------------------------------


 ---------------------------------------------------------------------------------
              Nuclear Quadrupole Coupling Constant in Principal Axis System
 ---------------------------------------------------------------------------------

       Atom             a.u.   MegaHertz   Gauss  10(-4) cm-1        Axes

              Baa    -0.5954     2.860     1.020     0.954  0.9374  0.3450 -0.0485
     1 N(14)  Bbb    -0.5072     2.436     0.869     0.812 -0.3245  0.9153  0.2386
              Bcc     1.1026    -5.295    -1.889    -1.766  0.1267 -0.2079  0.9699
 
              Baa    -0.6309     3.030     1.081     1.011  0.4005  0.9163 -0.0062
     4 N(14)  Bbb    -0.6263     3.008     1.073     1.003  0.9163 -0.4005 -0.0032
              Bcc     1.2573    -6.038    -2.155    -2.014  0.0054  0.0044  1.0000
 
              Baa    -0.5937     2.851     1.017     0.951 -0.2891  0.8997  0.3271
     7 N(14)  Bbb    -0.5061     2.431     0.867     0.811 -0.0874 -0.3651  0.9269
              Bcc     1.0998    -5.282    -1.885    -1.762  0.9533  0.2394  0.1842
 
              Baa    -0.5935     2.850     1.017     0.951  0.9255 -0.1931  0.3257
    10 N(14)  Bbb    -0.5053     2.427     0.866     0.810 -0.2720  0.2595  0.9267
              Bcc     1.0988    -5.277    -1.883    -1.760  0.2635  0.9462 -0.1876
 

 ---------------------------------------------------------------------------------

 No NMR shielding tensors so no spin-rotation constants.
 Leave Link  601 at Wed Dec  6 17:05:19 2023, MaxMem=  5100273664 cpu:              18.7 elap:               0.6
 FitSet:  NAtFit=    28 NAtPot=    28 NAtFrz=     0 MDM=    32 TotChg=   0.00000
 Merz-Kollman atomic radii used.
 Atom Element Radius
    1     7    1.50
    2     6    1.50
    3     6    1.50
    4     7    1.50
    5     6    1.50
    6     6    1.50
    7     7    1.50
    8     6    1.50
    9     6    1.50
   10     7    1.50
   11     1    1.20
   12     1    1.20
   13     1    1.20
   14     1    1.20
   15     1    1.20
   16     1    1.20
   17     1    1.20
   18     1    1.20
   19     1    1.20
   20     1    1.20
   21     1    1.20
   22     1    1.20
   23     1    1.20
   24     1    1.20
   25     1    1.20
   26     1    1.20
   27     1    1.20
   28     1    1.20
 Generate VDW surfaces: Layer= 4 Dens= 6 Start= 1.400 Inc= 0.200

 **********************************************************************

            Electrostatic Properties Using The SCF Density

 **********************************************************************

       Atomic Center    1 is at  -2.827335 -2.499285  0.037636
       Atomic Center    2 is at  -1.607237 -1.843421 -0.449080
       Atomic Center    3 is at  -1.220104 -0.696264  0.488355
       Atomic Center    4 is at   0.004526 -0.007775  0.068873
       Atomic Center    5 is at   0.025773  1.402089  0.466857
       Atomic Center    6 is at  -0.744302  2.304666 -0.499608
       Atomic Center    7 is at  -0.712302  3.691615 -0.018876
       Atomic Center    8 is at   1.216790 -0.725716  0.472936
       Atomic Center    9 is at   2.383081 -0.508387 -0.493530
       Atomic Center   10 is at   3.571398 -1.221653 -0.008272
       Atomic Center   11 is at  -3.011032 -3.355462 -0.473223
       Atomic Center   12 is at  -3.637400 -1.899528 -0.084156
       Atomic Center   13 is at  -1.687929 -1.443437 -1.470245
       Atomic Center   14 is at  -0.811968 -2.593945 -0.463589
       Atomic Center   15 is at  -1.144704 -1.082354  1.518683
       Atomic Center   16 is at  -2.038531  0.030496  0.490251
       Atomic Center   17 is at   1.059056  1.752989  0.492552
       Atomic Center   18 is at  -0.369749  1.534183  1.491970
       Atomic Center   19 is at  -1.762802  1.913855 -0.644932
       Atomic Center   20 is at  -0.250345  2.266625 -1.474096
       Atomic Center   21 is at  -1.264898  3.798028  0.826227
       Atomic Center   22 is at  -1.096683  4.326637 -0.709579
       Atomic Center   23 is at   1.007352 -1.796382  0.504835
       Atomic Center   24 is at   1.526199 -0.443038  1.496837
       Atomic Center   25 is at   2.548481  0.569000 -0.642959
       Atomic Center   26 is at   2.106340 -0.923214 -1.466448
       Atomic Center   27 is at   3.936322 -0.789439  0.834947
       Atomic Center   28 is at   4.314274 -1.203135 -0.698172
      ESP Fit Center   29 is at  -2.827335 -2.499285  2.137636
      ESP Fit Center   30 is at  -2.417645 -2.499285  2.097285
      ESP Fit Center   31 is at  -2.622490 -2.144483  2.097285
      ESP Fit Center   32 is at  -3.032180 -2.144483  2.097285
      ESP Fit Center   33 is at  -3.237024 -2.499285  2.097285
      ESP Fit Center   34 is at  -3.032180 -2.854087  2.097285
      ESP Fit Center   35 is at  -2.622490 -2.854087  2.097285
      ESP Fit Center   36 is at  -2.023699 -2.499285  1.977783
      ESP Fit Center   37 is at  -2.827335 -1.695650  1.977783
      ESP Fit Center   38 is at  -3.229152 -1.803316  1.977783
      ESP Fit Center   39 is at  -3.523303 -2.097467  1.977783
      ESP Fit Center   40 is at  -3.630970 -2.499285  1.977783
      ESP Fit Center   41 is at  -3.523303 -2.901103  1.977783
      ESP Fit Center   42 is at  -3.229152 -3.195253  1.977783
      ESP Fit Center   43 is at  -2.827335 -3.302920  1.977783
      ESP Fit Center   44 is at  -2.425517 -3.195253  1.977783
      ESP Fit Center   45 is at  -2.131366 -2.901103  1.977783
      ESP Fit Center   46 is at  -3.146617 -1.377125  1.783722
      ESP Fit Center   47 is at  -3.530427 -1.568240  1.783722
      ESP Fit Center   48 is at  -3.819281 -1.885098  1.783722
      ESP Fit Center   49 is at  -3.974167 -2.284905  1.783722
      ESP Fit Center   50 is at  -3.974167 -2.713665  1.783722
      ESP Fit Center   51 is at  -3.819281 -3.113472  1.783722
      ESP Fit Center   52 is at  -3.530427 -3.430330  1.783722
      ESP Fit Center   53 is at  -3.146617 -3.621444  1.783722
      ESP Fit Center   54 is at  -2.719685 -3.661005  1.783722
      ESP Fit Center   55 is at  -2.307293 -3.543670  1.783722
      ESP Fit Center   56 is at  -1.965135 -3.285284  1.783722
      ESP Fit Center   57 is at  -1.739422 -2.920745  1.783722
      ESP Fit Center   58 is at  -3.038661 -1.029475  1.522560
      ESP Fit Center   59 is at  -3.444194 -1.148550  1.522560
      ESP Fit Center   60 is at  -3.799753 -1.377054  1.522560
      ESP Fit Center   61 is at  -4.252109 -2.080933  1.522560
      ESP Fit Center   62 is at  -4.312259 -2.499285  1.522560
      ESP Fit Center   63 is at  -4.252109 -2.917636  1.522560
      ESP Fit Center   64 is at  -4.076532 -3.302096  1.522560
      ESP Fit Center   65 is at  -3.799753 -3.621516  1.522560
      ESP Fit Center   66 is at  -3.444194 -3.850020  1.522560
      ESP Fit Center   67 is at  -3.038661 -3.969095  1.522560
      ESP Fit Center   68 is at  -2.616008 -3.969095  1.522560
      ESP Fit Center   69 is at  -2.210475 -3.850020  1.522560
      ESP Fit Center   70 is at  -1.854916 -3.621516  1.522560
      ESP Fit Center   71 is at  -1.578137 -3.302096  1.522560
      ESP Fit Center   72 is at  -1.402560 -2.917636  1.522560
      ESP Fit Center   73 is at  -4.573421 -2.499285  1.204333
      ESP Fit Center   74 is at  -4.522683 -2.917151  1.204333
      ESP Fit Center   75 is at  -4.373417 -3.310732  1.204333
      ESP Fit Center   76 is at  -4.134299 -3.657154  1.204333
      ESP Fit Center   77 is at  -3.819225 -3.936286  1.204333
      ESP Fit Center   78 is at  -3.446505 -4.131904  1.204333
      ESP Fit Center   79 is at  -3.037802 -4.232640  1.204333
      ESP Fit Center   80 is at  -2.616867 -4.232640  1.204333
      ESP Fit Center   81 is at  -2.208164 -4.131904  1.204333
      ESP Fit Center   82 is at  -1.835445 -3.936286  1.204333
      ESP Fit Center   83 is at  -1.520370 -3.657154  1.204333
      ESP Fit Center   84 is at  -1.281252 -3.310732  1.204333
      ESP Fit Center   85 is at  -4.665921 -3.118777  0.841271
      ESP Fit Center   86 is at  -4.489764 -3.499535  0.841271
      ESP Fit Center   87 is at  -4.235873 -3.833523  0.841271
      ESP Fit Center   88 is at  -3.916120 -4.105123  0.841271
      ESP Fit Center   89 is at  -3.545457 -4.301636  0.841271
      ESP Fit Center   90 is at  -3.141216 -4.413873  0.841271
      ESP Fit Center   91 is at  -2.722297 -4.436587  0.841271
      ESP Fit Center   92 is at  -2.308290 -4.368714  0.841271
      ESP Fit Center   93 is at  -1.918553 -4.213428  0.841271
      ESP Fit Center   94 is at  -1.571310 -3.977991  0.841271
      ESP Fit Center   95 is at  -1.282797 -3.673412  0.841271
      ESP Fit Center   96 is at  -4.792527 -3.115868  0.447325
      ESP Fit Center   97 is at  -4.628182 -3.498837  0.447325
      ESP Fit Center   98 is at  -4.390110 -3.840884  0.447325
      ESP Fit Center   99 is at  -1.737854 -4.247194  0.447325
      ESP Fit Center  100 is at  -1.408305 -3.992104  0.447325
      ESP Fit Center  101 is at  -4.767482 -3.302920  0.037636
      ESP Fit Center  102 is at  -1.660637 -4.245371  0.037636
      ESP Fit Center  103 is at  -4.792527 -3.115868 -0.372054
      ESP Fit Center  104 is at  -4.665921 -3.118777 -0.766000
      ESP Fit Center  105 is at  -4.522683 -2.917151 -1.129062
      ESP Fit Center  106 is at  -3.974167 -2.284905 -1.708451
      ESP Fit Center  107 is at  -3.974167 -2.713665 -1.708451
      ESP Fit Center  108 is at  -3.523303 -2.097467 -1.902511
      ESP Fit Center  109 is at  -3.630970 -2.499285 -1.902511
      ESP Fit Center  110 is at  -3.237024 -2.499285 -2.022013
      ESP Fit Center  111 is at  -1.087195 -2.887806  1.297006
      ESP Fit Center  112 is at   0.088112 -1.425555 -1.615777
      ESP Fit Center  113 is at  -0.122312 -1.843421 -1.934004
      ESP Fit Center  114 is at  -1.818563 -3.313231 -1.934004
      ESP Fit Center  115 is at  -1.395910 -3.313231 -1.934004
      ESP Fit Center  116 is at  -1.926518 -2.965581 -2.195166
      ESP Fit Center  117 is at  -1.499587 -3.005142 -2.195166
      ESP Fit Center  118 is at  -1.087195 -2.887806 -2.195166
      ESP Fit Center  119 is at  -1.539386  0.425896  2.234441
      ESP Fit Center  120 is at  -1.923197  0.234781  2.234441
      ESP Fit Center  121 is at  -2.915453 -1.114129  1.655052
      ESP Fit Center  122 is at  -1.923197  0.234781 -1.257731
      ESP Fit Center  123 is at   0.004526 -0.007775  2.168873
      ESP Fit Center  124 is at   0.976945  1.114456 -1.416051
      ESP Fit Center  125 is at  -1.420248  0.410577 -1.416051
      ESP Fit Center  126 is at   0.866726  0.778224 -1.677213
      ESP Fit Center  127 is at  -1.142306  0.206605 -1.677213
      ESP Fit Center  128 is at   0.112175 -1.169495 -1.677213
      ESP Fit Center  129 is at   0.700495  0.394043 -1.871274
      ESP Fit Center  130 is at   0.406344  0.688194 -1.871274
      ESP Fit Center  131 is at  -0.691442  0.394043 -1.871274
      ESP Fit Center  132 is at  -0.799109 -0.007775 -1.871274
      ESP Fit Center  133 is at   0.004526 -0.811410 -1.871274
      ESP Fit Center  134 is at   0.406344 -0.703743 -1.871274
      ESP Fit Center  135 is at   0.414216 -0.007775 -1.990776
      ESP Fit Center  136 is at   0.209371  0.347027 -1.990776
      ESP Fit Center  137 is at  -0.200319  0.347027 -1.990776
      ESP Fit Center  138 is at  -0.405163 -0.007775 -1.990776
      ESP Fit Center  139 is at  -0.200319 -0.362576 -1.990776
      ESP Fit Center  140 is at   0.209371 -0.362576 -1.990776
      ESP Fit Center  141 is at   0.004526 -0.007775 -2.031127
      ESP Fit Center  142 is at   1.192471  1.402089  2.212943
      ESP Fit Center  143 is at   0.644944  3.034708  1.633555
      ESP Fit Center  144 is at   1.192471  1.402089 -1.279229
      ESP Fit Center  145 is at  -2.229226  2.304666  0.985316
      ESP Fit Center  146 is at  -2.169076  1.886314  0.985316
      ESP Fit Center  147 is at   1.273186  2.719270 -0.909298
      ESP Fit Center  148 is at   1.148429  3.116900 -0.909298
      ESP Fit Center  149 is at  -1.993500  3.107476 -1.984532
      ESP Fit Center  150 is at  -1.361162  0.953931 -1.984532
      ESP Fit Center  151 is at  -1.447394  3.235710 -2.245694
      ESP Fit Center  152 is at  -1.736248  2.918853 -2.245694
      ESP Fit Center  153 is at  -1.891134  2.519046 -2.245694
      ESP Fit Center  154 is at  -1.447394  1.373621 -2.245694
      ESP Fit Center  155 is at   0.091333  3.691615  1.921271
      ESP Fit Center  156 is at  -0.016334  4.093432  1.921271
      ESP Fit Center  157 is at  -0.016334  3.289797  1.921271
      ESP Fit Center  158 is at   0.454395  3.691615  1.727210
      ESP Fit Center  159 is at   0.375611  4.113074  1.727210
      ESP Fit Center  160 is at   0.149898  4.477614  1.727210
      ESP Fit Center  161 is at  -0.192260  4.735999  1.727210
      ESP Fit Center  162 is at   0.375611  3.270155  1.727210
      ESP Fit Center  163 is at   0.772622  3.691615  1.466048
      ESP Fit Center  164 is at   0.712472  4.109966  1.466048
      ESP Fit Center  165 is at   0.536896  4.494425  1.466048
      ESP Fit Center  166 is at   0.260116  4.813846  1.466048
      ESP Fit Center  167 is at  -0.095442  5.042349  1.466048
      ESP Fit Center  168 is at  -0.500975  5.161425  1.466048
      ESP Fit Center  169 is at   0.712472  3.273263  1.466048
      ESP Fit Center  170 is at   1.033784  3.691615  1.147822
      ESP Fit Center  171 is at   0.983046  4.109480  1.147822
      ESP Fit Center  172 is at   0.833780  4.503061  1.147822
      ESP Fit Center  173 is at   0.594662  4.849484  1.147822
      ESP Fit Center  174 is at   0.279588  5.128615  1.147822
      ESP Fit Center  175 is at  -0.093131  5.324234  1.147822
      ESP Fit Center  176 is at  -0.501835  5.424970  1.147822
      ESP Fit Center  177 is at  -0.922770  5.424970  1.147822
      ESP Fit Center  178 is at   1.227845  3.691615  0.784759
      ESP Fit Center  179 is at   1.182485  4.108689  0.784759
      ESP Fit Center  180 is at   1.048528  4.506261  0.784759
      ESP Fit Center  181 is at   0.832235  4.865742  0.784759
      ESP Fit Center  182 is at   0.543722  5.170321  0.784759
      ESP Fit Center  183 is at   0.196479  5.405758  0.784759
      ESP Fit Center  184 is at  -0.193258  5.561043  0.784759
      ESP Fit Center  185 is at  -0.607265  5.628916  0.784759
[...]
 6410 Fit       0.004424
 6411 Fit       0.004255
 6412 Fit       0.003458
 6413 Fit       0.002329
 6414 Fit       0.001036
 6415 Fit      -0.000383
 6416 Fit      -0.001832
 6417 Fit      -0.002992
 6418 Fit      -0.003435
 6419 Fit      -0.003035
 6420 Fit      -0.002127
 6421 Fit      -0.001175
 6422 Fit       0.000135
 6423 Fit       0.000878
 6424 Fit       0.001727
 6425 Fit       0.002645
 6426 Fit       0.003162
 6427 Fit       0.002882
 6428 Fit       0.001941
 6429 Fit       0.000678
 6430 Fit      -0.000582
 6431 Fit      -0.001372
 6432 Fit      -0.001321
 6433 Fit      -0.000652
 6434 Fit       0.000653
 6435 Fit       0.001570
 6436 Fit       0.002121
 6437 Fit       0.001544
 6438 Fit       0.000400
 6439 Fit       0.000016
 6440 Fit       0.001119
 6441 Fit       0.006898
 6442 Fit       0.004369
 6443 Fit       0.005239
 6444 Fit       0.007595
 6445 Fit       0.008908
 6446 Fit       0.008264
 6447 Fit       0.006120
 6448 Fit       0.001224
 6449 Fit       0.001431
 6450 Fit       0.003265
 6451 Fit       0.005825
 6452 Fit       0.008176
 6453 Fit       0.009781
 6454 Fit       0.010479
 6455 Fit       0.010305
 6456 Fit       0.009362
 6457 Fit       0.002797
 6458 Fit      -0.002788
 6459 Fit      -0.001433
 6460 Fit       0.000959
 6461 Fit       0.003756
 6462 Fit       0.006422
 6463 Fit       0.008627
 6464 Fit       0.010236
 6465 Fit       0.011235
 6466 Fit       0.011671
 6467 Fit       0.011603
 6468 Fit       0.011092
 6469 Fit      -0.001146
 6470 Fit       0.002078
 6471 Fit       0.005060
 6472 Fit       0.007579
 6473 Fit       0.009553
 6474 Fit       0.010984
 6475 Fit       0.011919
 6476 Fit       0.012422
 6477 Fit       0.012549
 6478 Fit       0.012347
 6479 Fit       0.011850
 6480 Fit       0.001011
 6481 Fit       0.004303
 6482 Fit       0.007038
 6483 Fit       0.009191
 6484 Fit       0.010796
 6485 Fit       0.011920
 6486 Fit       0.012634
 6487 Fit       0.013010
 6488 Fit       0.013103
 6489 Fit       0.012954
 6490 Fit       0.012583
 6491 Fit       0.012000
 6492 Fit       0.003561
 6493 Fit       0.006465
 6494 Fit       0.008745
 6495 Fit       0.010465
 6496 Fit       0.011704
 6497 Fit       0.012544
 6498 Fit       0.013062
 6499 Fit       0.013325
 6500 Fit       0.013387
 6501 Fit       0.013288
 6502 Fit       0.013046
 6503 Fit       0.012657
 6504 Fit       0.004689
 6505 Fit       0.007486
 6506 Fit       0.009591
 6507 Fit       0.011112
 6508 Fit       0.012158
 6509 Fit       0.012830
 6510 Fit       0.013217
 6511 Fit       0.013393
 6512 Fit       0.013421
 6513 Fit       0.013349
 6514 Fit       0.013207
 6515 Fit       0.013004
 6516 Fit       0.010484
 6517 Fit       0.011722
 6518 Fit       0.012515
 6519 Fit       0.012974
 6520 Fit       0.013195
 6521 Fit       0.013257
 6522 Fit       0.013227
 6523 Fit       0.013162
 6524 Fit       0.013107
 6525 Fit       0.012601
 6526 Fit       0.012960
 6527 Fit       0.013068
 6528 Fit       0.013022
 6529 Fit       0.012902
 6530 Fit       0.012776
 6531 Fit       0.012708
 6532 Fit       0.009577
 6533 Fit       0.004031
 6534 Fit       0.006754
 6535 Fit       0.008921
 6536 Fit       0.010587
 6537 Fit       0.011799
 6538 Fit       0.012596
 6539 Fit       0.013012
 6540 Fit      -0.002098
 6541 Fit       0.001526
 6542 Fit       0.004568
 6543 Fit       0.007073
 6544 Fit       0.009086
 6545 Fit       0.010646
 6546 Fit       0.011787
 6547 Fit       0.012542
 6548 Fit       0.012937
 6549 Fit       0.013000
 6550 Fit       0.012763
 6551 Fit      -0.002996
 6552 Fit       0.000647
 6553 Fit       0.003777
 6554 Fit       0.006406
 6555 Fit       0.008558
 6556 Fit       0.010260
 6557 Fit       0.011539
 6558 Fit       0.012422
 6559 Fit       0.012935
 6560 Fit       0.013104
 6561 Fit       0.012960
 6562 Fit       0.012535
 6563 Fit      -0.002918
 6564 Fit       0.000567
 6565 Fit       0.003647
 6566 Fit       0.006287
 6567 Fit       0.008478
 6568 Fit       0.010228
 6569 Fit       0.011553
 6570 Fit       0.012473
 6571 Fit       0.013012
 6572 Fit       0.013194
 6573 Fit       0.013051
 6574 Fit       0.012616
 6575 Fit       0.011929
 6576 Fit      -0.002450
 6577 Fit       0.000662
 6578 Fit       0.003549
 6579 Fit       0.006108
 6580 Fit       0.008284
 6581 Fit       0.010056
 6582 Fit       0.011420
 6583 Fit       0.012384
 6584 Fit       0.012965
 6585 Fit       0.013185
 6586 Fit       0.013072
 6587 Fit       0.012657
 6588 Fit       0.011973
 6589 Fit       0.011039
 6590 Fit      -0.000859
 6591 Fit       0.001843
 6592 Fit       0.004491
 6593 Fit       0.006898
 6594 Fit       0.008955
 6595 Fit       0.010606
 6596 Fit       0.011826
 6597 Fit       0.012614
 6598 Fit       0.012987
 6599 Fit       0.012970
 6600 Fit       0.012597
 6601 Fit       0.011900
 6602 Fit       0.010890
 6603 Fit       0.000888
 6604 Fit       0.003009
 6605 Fit       0.005311
 6606 Fit       0.007507
 6607 Fit       0.009409
 6608 Fit       0.010909
 6609 Fit       0.011953
 6610 Fit       0.012531
 6611 Fit       0.012657
 6612 Fit       0.012363
 6613 Fit       0.011685
 6614 Fit       0.010644
 6615 Fit       0.002954
 6616 Fit       0.004432
 6617 Fit       0.006377
 6618 Fit       0.008353
 6619 Fit       0.010046
 6620 Fit       0.011272
 6621 Fit       0.011948
 6622 Fit       0.012064
 6623 Fit       0.011657
 6624 Fit       0.010787
 6625 Fit       0.005182
 6626 Fit       0.005899
 6627 Fit       0.007527
 6628 Fit       0.009324
 6629 Fit       0.010672
 6630 Fit       0.011254
 6631 Fit       0.011017
 6632 Fit       0.010097
 6633 Fit       0.007290
 6634 Fit       0.008372
 6635 Fit       0.009870
 6636 Fit       0.010113
 6637 Fit       0.009067
 6638 Fit       0.007822
 6639 Fit       0.008896
 6640 Fit      -0.008882
 6641 Fit      -0.009079
 6642 Fit      -0.009764
 6643 Fit      -0.010819
 6644 Fit      -0.009681
 6645 Fit      -0.009274
 6646 Fit      -0.009535
 6647 Fit      -0.010577
 6648 Fit      -0.012253
 6649 Fit      -0.014154
 6650 Fit      -0.009960
 6651 Fit      -0.009279
 6652 Fit      -0.009615
 6653 Fit      -0.010940
 6654 Fit      -0.013173
 6655 Fit      -0.016160
 6656 Fit      -0.009495
 6657 Fit      -0.008878
 6658 Fit      -0.009429
 6659 Fit      -0.011043
 6660 Fit      -0.013708
 6661 Fit      -0.017491
 6662 Fit      -0.008057
 6663 Fit      -0.008360
 6664 Fit      -0.009833
 6665 Fit      -0.012449
 6666 Fit      -0.016380
 6667 Fit      -0.022005
 6668 Fit      -0.006820
 6669 Fit      -0.008233
 6670 Fit      -0.010687
 6671 Fit      -0.014364
 6672 Fit      -0.019706
 6673 Fit      -0.007935
 6674 Fit      -0.011102
 6675 Fit      -0.015561
 6676 Fit      -0.022004
 6677 Fit      -0.009678
 6678 Fit      -0.014283
 6679 Fit      -0.020824
 6680 Fit      -0.007030
 6681 Fit      -0.011423
 6682 Fit      -0.017298
 6683 Fit      -0.008421
 6684 Fit      -0.013430
 6685 Fit      -0.007902
 6686 Fit      -0.012798
 6687 Fit      -0.007298
 6688 Fit      -0.001282
 6689 Fit      -0.000619
 6690 Fit      -0.000303
 6691 Fit      -0.000931
 6692 Fit      -0.001831
 6693 Fit      -0.002372
 6694 Fit      -0.001822
 6695 Fit       0.000227
 6696 Fit       0.000804
 6697 Fit       0.000553
 6698 Fit      -0.000072
 6699 Fit      -0.000737
 6700 Fit      -0.001453
 6701 Fit      -0.002288
 6702 Fit      -0.003081
 6703 Fit      -0.003548
 6704 Fit      -0.003441
 6705 Fit      -0.002605
 6706 Fit      -0.001156
 6707 Fit       0.001387
 6708 Fit       0.002094
 6709 Fit       0.001941
 6710 Fit       0.001284
 6711 Fit       0.000489
 6712 Fit      -0.000190
 6713 Fit      -0.000684
 6714 Fit      -0.001164
 6715 Fit      -0.001824
 6716 Fit      -0.002640
 6717 Fit      -0.003495
 6718 Fit      -0.004260
 6719 Fit      -0.004768
 6720 Fit      -0.004920
 6721 Fit      -0.004627
 6722 Fit      -0.003723
 6723 Fit      -0.002138
 6724 Fit      -0.000200
 6725 Fit       0.003120
 6726 Fit       0.003917
 6727 Fit       0.003665
 6728 Fit       0.002805
 6729 Fit       0.001717
 6730 Fit       0.000657
 6731 Fit      -0.000177
 6732 Fit      -0.005797
 6733 Fit      -0.006226
 6734 Fit      -0.006411
 6735 Fit      -0.006266
 6736 Fit      -0.005532
 6737 Fit      -0.003936
 6738 Fit      -0.001514
 6739 Fit       0.001136
 6740 Fit       0.006697
 6741 Fit       0.006053
 6742 Fit       0.004727
 6743 Fit       0.003203
 6744 Fit       0.001701
 6745 Fit       0.000338
 6746 Fit      -0.008012
 6747 Fit      -0.008318
 6748 Fit      -0.008129
 6749 Fit      -0.006938
 6750 Fit      -0.004356
 6751 Fit       0.007432
 6752 Fit       0.005259
 6753 Fit       0.003278
 6754 Fit       0.001460
 6755 Fit      -0.011114
 6756 Fit       0.007330
 6757 Fit       0.004724
 6758 Fit       0.006489
 6759 Fit       0.006687
 6760 Fit       0.006369
 6761 Fit       0.004268
 6762 Fit       0.005922
 6763 Fit       0.004044
 6764 Fit       0.002360
 6765 Fit       0.005147
 6766 Fit       0.003518
 6767 Fit       0.001923
 6768 Fit       0.000237
 6769 Fit       0.004621
 6770 Fit       0.003193
 6771 Fit       0.001751
 6772 Fit       0.000168
 6773 Fit      -0.001691
 6774 Fit       0.004220
 6775 Fit       0.002887
 6776 Fit       0.001557
 6777 Fit       0.000099
 6778 Fit      -0.001621
 6779 Fit      -0.003733
 6780 Fit       0.005294
 6781 Fit       0.003754
 6782 Fit       0.002433
 6783 Fit       0.001140
 6784 Fit      -0.000268
 6785 Fit      -0.001916
 6786 Fit      -0.003890
 6787 Fit       0.004770
 6788 Fit       0.003214
 6789 Fit       0.001911
 6790 Fit       0.000653
 6791 Fit      -0.000697
 6792 Fit      -0.002219
 6793 Fit      -0.003903
 6794 Fit      -0.005535
 6795 Fit       0.004112
 6796 Fit       0.002647
 6797 Fit       0.001420
 6798 Fit       0.000253
 6799 Fit      -0.000951
 6800 Fit      -0.002204
 6801 Fit      -0.003386
 6802 Fit       0.003106
 6803 Fit       0.001777
 6804 Fit       0.000628
 6805 Fit      -0.000462
 6806 Fit      -0.001515
 6807 Fit      -0.002427
 6808 Fit       0.002031
 6809 Fit       0.000871
 6810 Fit      -0.000163
 6811 Fit      -0.001113
 6812 Fit      -0.001930
 6813 Fit      -0.002540
 6814 Fit       0.000823
 6815 Fit      -0.000210
 6816 Fit      -0.001157
 6817 Fit      -0.002026
 6818 Fit      -0.002934
 6819 Fit      -0.000574
 6820 Fit      -0.001647
 6821 Fit      -0.002801
 6822 Fit      -0.010147
 6823 Fit      -0.005099
 6824 Fit      -0.007163
 6825 Fit      -0.009527
 6826 Fit      -0.011861
 6827 Fit      -0.003858
 6828 Fit      -0.004747
 6829 Fit      -0.006064
 6830 Fit      -0.007429
 6831 Fit      -0.008431
 6832 Fit      -0.004214
 6833 Fit      -0.003432
 6834 Fit      -0.003433
 6835 Fit      -0.003944
 6836 Fit      -0.004632
 6837 Fit      -0.005145
 6838 Fit      -0.005096
 6839 Fit      -0.004069
 6840 Fit      -0.006741
 6841 Fit      -0.008870
 6842 Fit      -0.010599
 6843 Fit      -0.011024
 6844 Fit      -0.009913
 6845 Fit      -0.007905
 6846 Fit      -0.005840
 6847 Fit      -0.004193
 6848 Fit      -0.003157
 6849 Fit      -0.002747
 6850 Fit      -0.002797
 6851 Fit      -0.003019
 6852 Fit      -0.003069
 6853 Fit      -0.002597
 6854 Fit      -0.001322
 6855 Fit       0.000808
 6856 Fit       0.003402
 6857 Fit       0.003990
 6858 Fit       0.003649
 6859 Fit       0.002566
 6860 Fit       0.001171
 6861 Fit      -0.000226
 6862 Fit      -0.001517
 6863 Fit      -0.002745
 6864 Fit      -0.004022
 6865 Fit      -0.005381
 6866 Fit      -0.006561
 6867 Fit      -0.007041
 6868 Fit      -0.006543
 6869 Fit      -0.005346
 6870 Fit      -0.003998
 6871 Fit      -0.002911
 6872 Fit      -0.002254
 6873 Fit      -0.001975
 6874 Fit      -0.001856
 6875 Fit      -0.001597
 6876 Fit      -0.000917
 6877 Fit       0.000312
 6878 Fit       0.001906
 6879 Fit       0.003334
 6880 Fit       0.002387
 6881 Fit       0.002076
 6882 Fit       0.001161
 6883 Fit      -0.000007
 6884 Fit      -0.001191
 6885 Fit      -0.002324
 6886 Fit      -0.003382
 6887 Fit      -0.004187
 6888 Fit      -0.004404
 6889 Fit      -0.003913
 6890 Fit      -0.003022
 6891 Fit      -0.002161
 6892 Fit      -0.001560
 6893 Fit      -0.001170
 6894 Fit      -0.000750
 6895 Fit      -0.000057
 6896 Fit       0.000940
 6897 Fit       0.001922
 6898 Fit       0.001286
 6899 Fit       0.000891
 6900 Fit      -0.000062
 6901 Fit      -0.001160
 6902 Fit      -0.002111
 6903 Fit      -0.002609
 6904 Fit      -0.002412
 6905 Fit      -0.001750
 6906 Fit      -0.001076
 6907 Fit      -0.000496
 6908 Fit       0.000177
 6909 Fit       0.000925
 6910 Fit       0.000421
 6911 Fit      -0.000185
 6912 Fit      -0.001113
 6913 Fit      -0.001288
 6914 Fit      -0.000685
 6915 Fit       0.000049
 6916 Fit      -0.000389
 6917 Fit       0.004378
 6918 Fit       0.005083
 6919 Fit       0.006402
 6920 Fit       0.005776
 6921 Fit       0.003592
 6922 Fit       0.001767
 6923 Fit       0.002675
 6924 Fit       0.005667
 6925 Fit       0.007249
 6926 Fit       0.007913
 6927 Fit       0.007750
 6928 Fit       0.006877
 6929 Fit       0.000117
 6930 Fit      -0.001522
 6931 Fit      -0.001272
 6932 Fit       0.000654
 6933 Fit       0.003290
 6934 Fit       0.006118
 6935 Fit       0.007686
 6936 Fit       0.008613
 6937 Fit       0.008974
 6938 Fit       0.008876
 6939 Fit       0.008420
 6940 Fit       0.007676
 6941 Fit      -0.005666
 6942 Fit      -0.004203
 6943 Fit      -0.001695
 6944 Fit       0.001194
 6945 Fit       0.003910
 6946 Fit       0.006445
 6947 Fit       0.007996
 6948 Fit       0.008994
 6949 Fit       0.009513
 6950 Fit       0.009638
 6951 Fit       0.009461
 6952 Fit       0.009072
 6953 Fit       0.008546
 6954 Fit      -0.004928
 6955 Fit      -0.001589
 6956 Fit       0.001580
 6957 Fit       0.004300
 6958 Fit       0.006673
 6959 Fit       0.008208
 6960 Fit       0.009217
 6961 Fit       0.009779
 6962 Fit       0.009975
 6963 Fit       0.009886
 6964 Fit       0.009596
 6965 Fit       0.009190
 6966 Fit       0.008741
 6967 Fit      -0.001557
 6968 Fit       0.001794
 6969 Fit       0.004547
 6970 Fit       0.006851
 6971 Fit       0.008321
 6972 Fit       0.009294
 6973 Fit       0.009850
 6974 Fit       0.010066
 6975 Fit       0.010013
 6976 Fit       0.009764
 6977 Fit       0.009396
 6978 Fit       0.008994
 6979 Fit       0.008636
 6980 Fit      -0.001269
 6981 Fit       0.002108
 6982 Fit       0.004803
 6983 Fit       0.007055
 6984 Fit       0.008484
 6985 Fit       0.009390
 6986 Fit       0.009871
 6987 Fit       0.010014
 6988 Fit       0.009895
 6989 Fit       0.009586
 6990 Fit       0.009167
 6991 Fit       0.008735
 6992 Fit       0.008407
 6993 Fit       0.004998
 6994 Fit       0.007403
 6995 Fit       0.008716
 6996 Fit       0.009495
 6997 Fit       0.009851
 6998 Fit       0.009881
 6999 Fit       0.009664
 7000 Fit       0.009274
 7001 Fit       0.008785
 7002 Fit       0.008292
 7003 Fit       0.007928
 7004 Fit       0.009773
 7005 Fit       0.009917
 7006 Fit       0.009749
 7007 Fit       0.009358
 7008 Fit       0.008822
 7009 Fit       0.008217
 7010 Fit       0.007641
 7011 Fit       0.007129
 7012 Fit       0.007687
 7013 Fit       0.008942
 7014 Fit       0.009732
 7015 Fit       0.010088
 7016 Fit       0.000718
 7017 Fit       0.003627
 7018 Fit       0.005931
 7019 Fit       0.008290
 7020 Fit       0.009324
 7021 Fit       0.009936
 7022 Fit       0.010147
 7023 Fit       0.009981
 7024 Fit       0.009465
 7025 Fit      -0.004322
 7026 Fit      -0.000679
 7027 Fit       0.002361
 7028 Fit       0.004842
 7029 Fit       0.006806
 7030 Fit       0.008835
 7031 Fit       0.009734
 7032 Fit       0.010217
 7033 Fit       0.010307
 7034 Fit       0.010027
 7035 Fit       0.009406
 7036 Fit       0.008486
 7037 Fit      -0.002665
 7038 Fit       0.000645
 7039 Fit       0.003429
 7040 Fit       0.005707
 7041 Fit       0.007501
 7042 Fit       0.009257
 7043 Fit       0.010057
 7044 Fit       0.010439
 7045 Fit       0.010423
 7046 Fit       0.010037
 7047 Fit       0.009315
 7048 Fit       0.008306
 7049 Fit      -0.005028
 7050 Fit      -0.001530
 7051 Fit       0.001552
 7052 Fit       0.004176
 7053 Fit       0.006331
 7054 Fit       0.008021
 7055 Fit       0.009512
 7056 Fit       0.010223
 7057 Fit       0.010523
 7058 Fit       0.010432
 7059 Fit       0.009980
 7060 Fit       0.009207
 7061 Fit       0.008161
 7062 Fit      -0.003444
 7063 Fit      -0.000389
 7064 Fit       0.002389
 7065 Fit       0.004802
 7066 Fit       0.006804
 7067 Fit       0.008374
 7068 Fit       0.009571
 7069 Fit       0.010229
 7070 Fit       0.010435
 7071 Fit       0.010216
 7072 Fit       0.009613
 7073 Fit       0.008678
 7074 Fit       0.007463
 7075 Fit      -0.002848
 7076 Fit      -0.000155
 7077 Fit       0.002477
 7078 Fit       0.004857
 7079 Fit       0.006869
 7080 Fit       0.008450
 7081 Fit       0.009419
 7082 Fit       0.010017
 7083 Fit       0.010124
 7084 Fit       0.009773
 7085 Fit       0.009023
 7086 Fit       0.007940
 7087 Fit      -0.001649
 7088 Fit       0.000308
 7089 Fit       0.002563
 7090 Fit       0.004788
 7091 Fit       0.006754
 7092 Fit       0.008322
 7093 Fit       0.009050
 7094 Fit       0.009586
 7095 Fit       0.009538
 7096 Fit       0.008967
 7097 Fit       0.007978
 7098 Fit       0.001029
 7099 Fit       0.002480
 7100 Fit       0.004390
 7101 Fit       0.006314
 7102 Fit       0.007931
 7103 Fit       0.008465
 7104 Fit       0.008901
 7105 Fit       0.008522
 7106 Fit       0.007537
 7107 Fit       0.003220
 7108 Fit       0.003926
 7109 Fit       0.005511
 7110 Fit       0.007232
 7111 Fit       0.007680
 7112 Fit       0.007793
 7113 Fit       0.006758
 7114 Fit       0.005670
 7115 Fit       0.005239
 7116 Fit       0.006297
 7117 Fit       0.006725
 -----------------------------------------------------------------
 Leave Link  602 at Wed Dec  6 17:05:19 2023, MaxMem=  5100273664 cpu:               6.2 elap:               0.2

 Test job not archived.
 1\1\GINC-N0385\SP\RHF\6-31G(d)\C6H18N4\TIWARIS\06-Dec-2023\0\\#HF/6-31
 G* SCF=tight Test Pop=MK iop(6/33=2) iop(6/42=6) guess=read geom=AllCh
 eck\\Title\\0,1\N,0,0.8860131818,-0.4798737621,0.9772672433\C,0,2.3522
 3106,-0.4881345704,1.0535924381\C,0,2.8998127778,0.9100786154,0.753959
 9202\N,0,4.3624347419,0.9765898242,0.831520219\C,0,4.9306749714,1.9929
 187652,-0.0577144009\C,0,5.086675726,1.5023362644,-1.4987931132\N,0,5.
 6238500061,2.5813893731,-2.3371504907\C,0,4.8448717902,1.1005741933,2.
 209987299\C,0,6.2190981856,0.4597596807,2.4158563251\N,0,6.6566475908,
 0.6550241934,3.8039277557\H,0,0.4966892335,-1.3484271043,1.3262688862\
 H,0,0.5711740219,-0.3760905502,0.0176568607\H,0,2.834522515,-1.2022358
 588,0.3704151467\H,0,2.6285489472,-0.7839403953,2.0695137394\H,0,2.416
 90531,1.6382998893,1.4268792084\H,0,2.5976673309,1.1815357075,-0.26241
 80511\H,0,5.9217119355,2.2734571742,0.3036814\H,0,4.3249066264,2.91900
 17867,-0.0451480002\H,0,4.1292134917,1.0993588811,-1.8622061514\H,0,5.
 799856253,0.6738444279,-1.5053092711\H,0,4.9415918401,3.3234224789,-2.
 4587857143\H,0,5.8635354467,2.2408977232,-3.2616441893\H,0,4.143248178
 5,0.6045404624,2.882953129\H,0,4.878313805,2.1596994417,2.5280293013\H
 ,0,6.9291716266,0.8519431698,1.6725954705\H,0,6.1297774566,-0.61409277
 27,2.2311961347\H,0,6.8698427652,1.6312105031,3.9844968137\H,0,7.49902
 31846,0.1250924584,3.9982120913\\Version=ES64L-G16RevA.03\State=1-A\HF
 =-455.4270619\RMSD=9.424e-09\Dipole=0.0496457,-0.2238645,-0.7791224\Qu
 adrupole=-0.781883,0.7729566,0.0089264,1.2671976,6.3571766,1.0525837\P
 G=C01 [X(C6H18N4)]\\@


 A MAN SHOULD NEVER BE ASHAMED TO OWN HE HAS BEEN IN THE WRONG
 WHICH IS BUT SAYING IN OTHER WORDS,
 THAT HE IS WISER TODAY THAN HE WAS YESTERDAY.

                          -- JONATHAN SWIFT
 Job cpu time:       0 days  0 hours  2 minutes 31.8 seconds.
 Elapsed time:       0 days  0 hours  0 minutes  4.3 seconds.
 File lengths (MBytes):  RWF=     34 Int=      0 D2E=      0 Chk=     12 Scr=      2
 Normal termination of Gaussian 16 at Wed Dec  6 17:05:19 2023.
