 Entering Gaussian System, Link 0=g16
 Initial command:
 /nfs/apps/Gaussian/64/g16/l1.exe "/.nfs/home/5/tiwaris/qm_2022_plus/charge_calculations_10_amines/6_TAEA_dir/Gau-21388.inp" -scrdir="/.nfs/home/5/tiwaris/qm_2022_plus/charge_calculations_10_amines/6_TAEA_dir/"
 Entering Link 1 = /nfs/apps/Gaussian/64/g16/l1.exe PID=     21389.
  
 Copyright (c) 1988,1990,1992,1993,1995,1998,2003,2009,2016,
            Gaussian, Inc.  All Rights Reserved.
  
 This is part of the Gaussian(R) 16 program.  It is based on
 the Gaussian(R) 09 system (copyright 2009, Gaussian, Inc.),
 the Gaussian(R) 03 system (copyright 2003, Gaussian, Inc.),
 the Gaussian(R) 98 system (copyright 1998, Gaussian, Inc.),
 the Gaussian(R) 94 system (copyright 1995, Gaussian, Inc.),
 the Gaussian 92(TM) system (copyright 1992, Gaussian, Inc.),
 the Gaussian 90(TM) system (copyright 1990, Gaussian, Inc.),
 the Gaussian 88(TM) system (copyright 1988, Gaussian, Inc.),
 the Gaussian 86(TM) system (copyright 1986, Carnegie Mellon
 University), and the Gaussian 82(TM) system (copyright 1983,
 Carnegie Mellon University). Gaussian is a federally registered
 trademark of Gaussian, Inc.
  
 This software contains proprietary and confidential information,
 including trade secrets, belonging to Gaussian, Inc.
  
 This software is provided under written license and may be
 used, copied, transmitted, or stored only in accord with that
 written license.
  
 The following legend is applicable only to US Government
 contracts under FAR:
  
                    RESTRICTED RIGHTS LEGEND
  
 Use, reproduction and disclosure by the US Government is
 subject to restrictions as set forth in subparagraphs (a)
 and (c) of the Commercial Computer Software - Restricted
 Rights clause in FAR 52.227-19.
  
 Gaussian, Inc.
 340 Quinnipiac St., Bldg. 40, Wallingford CT 06492
  
  
 ---------------------------------------------------------------
 Warning -- This program may not be used in any manner that
 competes with the business of Gaussian, Inc. or will provide
 assistance to any competitor of Gaussian, Inc.  The licensee
 of this program is prohibited from giving any competitor of
 Gaussian, Inc. access to this program.  By using this program,
 the user acknowledges that Gaussian, Inc. is engaged in the
 business of creating and licensing software in the field of
 computational chemistry and represents and warrants to the
 licensee that it is not a competitor of Gaussian, Inc. and that
 it will not use this program in any manner prohibited above.
 ---------------------------------------------------------------
  

 Cite this work as:
 Gaussian 16, Revision A.03,
 M. J. Frisch, G. W. Trucks, H. B. Schlegel, G. E. Scuseria, 
 M. A. Robb, J. R. Cheeseman, G. Scalmani, V. Barone, 
 G. A. Petersson, H. Nakatsuji, X. Li, M. Caricato, A. V. Marenich, 
 J. Bloino, B. G. Janesko, R. Gomperts, B. Mennucci, H. P. Hratchian, 
 J. V. Ortiz, A. F. Izmaylov, J. L. Sonnenberg, D. Williams-Young, 
 F. Ding, F. Lipparini, F. Egidi, J. Goings, B. Peng, A. Petrone, 
 T. Henderson, D. Ranasinghe, V. G. Zakrzewski, J. Gao, N. Rega, 
 G. Zheng, W. Liang, M. Hada, M. Ehara, K. Toyota, R. Fukuda, 
 J. Hasegawa, M. Ishida, T. Nakajima, Y. Honda, O. Kitao, H. Nakai, 
 T. Vreven, K. Throssell, J. A. Montgomery, Jr., J. E. Peralta, 
 F. Ogliaro, M. J. Bearpark, J. J. Heyd, E. N. Brothers, K. N. Kudin, 
 V. N. Staroverov, T. A. Keith, R. Kobayashi, J. Normand, 
 K. Raghavachari, A. P. Rendell, J. C. Burant, S. S. Iyengar, 
 J. Tomasi, M. Cossi, J. M. Millam, M. Klene, C. Adamo, R. Cammi, 
 J. W. Ochterski, R. L. Martin, K. Morokuma, O. Farkas, 
 J. B. Foresman, and D. J. Fox, Gaussian, Inc., Wallingford CT, 2016.
 
 ******************************************
 Gaussian 16:  ES64L-G16RevA.03 25-Dec-2016
                 5-Dec-2023 
 ******************************************
 %Mem=28GB
 %NoSave
 %NProcShared=16
 Will use up to   16 processors via shared memory.
 %Chk=AC.chk
 -------------------------------
 # opt freq rb3lyp/6-311++g(d,p)
 -------------------------------
 1/18=20,19=15,26=3,38=1/1,3;
 2/9=110,12=2,17=6,18=5,40=1/2;
 3/5=4,6=6,7=1111,11=2,25=1,30=1,71=1,74=-5,116=1/1,2,3;
 4//1;
 5/5=2,38=5/2;
 6/7=2,8=2,9=2,10=2,28=1/1;
 7//1,2,3,16;
 1/18=20,19=15,26=3/3(2);
 2/9=110/2;
 99//99;
 2/9=110/2;
 3/5=4,6=6,7=1111,11=2,25=1,30=1,71=1,74=-5,116=1/1,2,3;
 4/5=5,16=3,69=1/1;
 5/5=2,38=5/2;
 7//1,2,3,16;
 1/18=20,19=15,26=3/3(-5);
 2/9=110/2;
 6/7=2,8=2,9=2,10=2,19=2,28=1/1;
 99/9=1/99;
 -----
 Title
 -----
 Symbolic Z-matrix:
 Charge =  0 Multiplicity = 1
 N                     0.77318  -0.33046   0.51635 
 C                     2.19846  -0.24062   0.17562 
 C                     2.9809    0.55714   1.24 
 N                     4.46409   0.58307   1.11616 
 C                     4.94691   1.5015    0.0561 
 C                     4.80225   1.01263  -1.39991 
 N                     5.56582   1.85579  -2.32744 
 C                     5.00042   1.01125   2.44343 
 C                     6.53252   0.91908   2.63423 
 N                     6.92231   1.33986   3.98603 
 H                     0.28253  -0.81665  -0.23333 
 H                     0.37203   0.60488   0.56119 
 H                     2.25248   0.23678  -0.80059 
 H                     2.60737  -1.252     0.0858 
 H                     2.72624   0.0793    2.19604 
 H                     2.58906   1.58095   1.29777 
 H                     6.0229    1.65141   0.18801 
 H                     4.48542   2.49168   0.16572 
 H                     3.76405   1.05182  -1.72829 
 H                     5.15509  -0.02012  -1.48933 
 H                     5.20092   2.80691  -2.3028 
 H                     5.41951   1.51871  -3.27847 
 H                     4.56236   0.36786   3.21948 
 H                     4.66928   2.03668   2.65997 
 H                     7.06668   1.5602    1.92892 
 H                     6.86502  -0.11127   2.47199 
 H                     6.67239   2.3175    4.12115 
 H                     7.93782   1.2943    4.06504 
 

 GradGradGradGradGradGradGradGradGradGradGradGradGradGradGradGradGradGrad
 Berny optimization.
 Initialization pass.
                           ----------------------------
                           !    Initial Parameters    !
                           ! (Angstroms and Degrees)  !
 --------------------------                            --------------------------
 ! Name  Definition              Value          Derivative Info.                !
 --------------------------------------------------------------------------------
 ! R1    R(1,2)                  1.4682         estimate D2E/DX2                !
 ! R2    R(1,11)                 1.0194         estimate D2E/DX2                !
 ! R3    R(1,12)                 1.0187         estimate D2E/DX2                !
 ! R4    R(2,3)                  1.5432         estimate D2E/DX2                !
 ! R5    R(2,13)                 1.088          estimate D2E/DX2                !
 ! R6    R(2,14)                 1.0946         estimate D2E/DX2                !
 ! R7    R(3,4)                  1.4886         estimate D2E/DX2                !
 ! R8    R(3,15)                 1.0987         estimate D2E/DX2                !
 ! R9    R(3,16)                 1.0978         estimate D2E/DX2                !
 ! R10   R(4,5)                  1.4834         estimate D2E/DX2                !
 ! R11   R(4,8)                  1.4942         estimate D2E/DX2                !
 ! R12   R(5,6)                  1.5427         estimate D2E/DX2                !
 ! R13   R(5,17)                 1.0944         estimate D2E/DX2                !
 ! R14   R(5,18)                 1.0979         estimate D2E/DX2                !
 ! R15   R(6,7)                  1.4677         estimate D2E/DX2                !
 ! R16   R(6,19)                 1.0896         estimate D2E/DX2                !
 ! R17   R(6,20)                 1.095          estimate D2E/DX2                !
 ! R18   R(7,21)                 1.019          estimate D2E/DX2                !
 ! R19   R(7,22)                 1.0196         estimate D2E/DX2                !
 ! R20   R(8,9)                  1.5467         estimate D2E/DX2                !
 ! R21   R(8,23)                 1.0991         estimate D2E/DX2                !
 ! R22   R(8,24)                 1.0991         estimate D2E/DX2                !
 ! R23   R(9,10)                 1.4685         estimate D2E/DX2                !
 ! R24   R(9,25)                 1.0926         estimate D2E/DX2                !
 ! R25   R(9,26)                 1.0948         estimate D2E/DX2                !
 ! R26   R(10,27)                1.0181         estimate D2E/DX2                !
 ! R27   R(10,28)                1.0196         estimate D2E/DX2                !
 ! A1    A(2,1,11)             109.0119         estimate D2E/DX2                !
 ! A2    A(2,1,12)             109.6517         estimate D2E/DX2                !
 ! A3    A(11,1,12)            106.3047         estimate D2E/DX2                !
 ! A4    A(1,2,3)              111.3316         estimate D2E/DX2                !
 ! A5    A(1,2,13)             106.4555         estimate D2E/DX2                !
 ! A6    A(1,2,14)             108.9749         estimate D2E/DX2                !
 ! A7    A(3,2,13)             111.5204         estimate D2E/DX2                !
 ! A8    A(3,2,14)             110.1714         estimate D2E/DX2                !
 ! A9    A(13,2,14)            108.2547         estimate D2E/DX2                !
 ! A10   A(2,3,4)              117.1813         estimate D2E/DX2                !
 ! A11   A(2,3,15)             104.94           estimate D2E/DX2                !
 ! A12   A(2,3,16)             109.7211         estimate D2E/DX2                !
 ! A13   A(4,3,15)             108.1138         estimate D2E/DX2                !
 ! A14   A(4,3,16)             110.1078         estimate D2E/DX2                !
 ! A15   A(15,3,16)            106.0863         estimate D2E/DX2                !
 ! A16   A(3,4,5)              113.238          estimate D2E/DX2                !
 ! A17   A(3,4,8)              106.7822         estimate D2E/DX2                !
 ! A18   A(5,4,8)              109.9097         estimate D2E/DX2                !
 ! A19   A(4,5,6)              116.5996         estimate D2E/DX2                !
 ! A20   A(4,5,17)             108.5844         estimate D2E/DX2                !
 ! A21   A(4,5,18)             110.5013         estimate D2E/DX2                !
 ! A22   A(6,5,17)             104.4403         estimate D2E/DX2                !
 ! A23   A(6,5,18)             109.9143         estimate D2E/DX2                !
 ! A24   A(17,5,18)            106.1228         estimate D2E/DX2                !
 ! A25   A(5,6,7)              111.4451         estimate D2E/DX2                !
 ! A26   A(5,6,19)             111.2473         estimate D2E/DX2                !
 ! A27   A(5,6,20)             110.2265         estimate D2E/DX2                !
 ! A28   A(7,6,19)             106.5336         estimate D2E/DX2                !
 ! A29   A(7,6,20)             108.8176         estimate D2E/DX2                !
 ! A30   A(19,6,20)            108.4414         estimate D2E/DX2                !
 ! A31   A(6,7,21)             109.5491         estimate D2E/DX2                !
 ! A32   A(6,7,22)             108.9589         estimate D2E/DX2                !
 ! A33   A(21,7,22)            106.2456         estimate D2E/DX2                !
 ! A34   A(4,8,9)              116.6192         estimate D2E/DX2                !
 ! A35   A(4,8,23)             108.444          estimate D2E/DX2                !
 ! A36   A(4,8,24)             109.5247         estimate D2E/DX2                !
 ! A37   A(9,8,23)             105.8315         estimate D2E/DX2                !
 ! A38   A(9,8,24)             109.2525         estimate D2E/DX2                !
 ! A39   A(23,8,24)            106.6749         estimate D2E/DX2                !
 ! A40   A(8,9,10)             111.0649         estimate D2E/DX2                !
 ! A41   A(8,9,25)             111.6953         estimate D2E/DX2                !
 ! A42   A(8,9,26)             109.7953         estimate D2E/DX2                !
 ! A43   A(10,9,25)            107.2375         estimate D2E/DX2                !
 ! A44   A(10,9,26)            108.9954         estimate D2E/DX2                !
 ! A45   A(25,9,26)            107.9449         estimate D2E/DX2                !
 ! A46   A(9,10,27)            109.4011         estimate D2E/DX2                !
 ! A47   A(9,10,28)            108.839          estimate D2E/DX2                !
 ! A48   A(27,10,28)           106.0884         estimate D2E/DX2                !
 ! D1    D(11,1,2,3)           176.8207         estimate D2E/DX2                !
 ! D2    D(11,1,2,13)           55.0866         estimate D2E/DX2                !
 ! D3    D(11,1,2,14)          -61.4613         estimate D2E/DX2                !
 ! D4    D(12,1,2,3)            60.822          estimate D2E/DX2                !
 ! D5    D(12,1,2,13)          -60.9121         estimate D2E/DX2                !
 ! D6    D(12,1,2,14)         -177.4601         estimate D2E/DX2                !
 ! D7    D(1,2,3,4)            172.4617         estimate D2E/DX2                !
 ! D8    D(1,2,3,15)            52.5444         estimate D2E/DX2                !
 ! D9    D(1,2,3,16)           -61.0523         estimate D2E/DX2                !
 ! D10   D(13,2,3,4)           -68.7952         estimate D2E/DX2                !
 ! D11   D(13,2,3,15)          171.2875         estimate D2E/DX2                !
 ! D12   D(13,2,3,16)           57.6908         estimate D2E/DX2                !
 ! D13   D(14,2,3,4)            51.4416         estimate D2E/DX2                !
 ! D14   D(14,2,3,15)          -68.4757         estimate D2E/DX2                !
 ! D15   D(14,2,3,16)          177.9276         estimate D2E/DX2                !
 ! D16   D(2,3,4,5)             76.701          estimate D2E/DX2                !
 ! D17   D(2,3,4,8)           -162.1956         estimate D2E/DX2                !
 ! D18   D(15,3,4,5)          -165.076          estimate D2E/DX2                !
 ! D19   D(15,3,4,8)           -43.9726         estimate D2E/DX2                !
 ! D20   D(16,3,4,5)           -49.5948         estimate D2E/DX2                !
 ! D21   D(16,3,4,8)            71.5086         estimate D2E/DX2                !
 ! D22   D(3,4,5,6)            -76.1202         estimate D2E/DX2                !
 ! D23   D(3,4,5,17)           166.3246         estimate D2E/DX2                !
 ! D24   D(3,4,5,18)            50.3161         estimate D2E/DX2                !
 ! D25   D(8,4,5,6)            164.5577         estimate D2E/DX2                !
 ! D26   D(8,4,5,17)            47.0025         estimate D2E/DX2                !
 ! D27   D(8,4,5,18)           -69.0061         estimate D2E/DX2                !
 ! D28   D(3,4,8,9)            171.4051         estimate D2E/DX2                !
 ! D29   D(3,4,8,23)            52.1416         estimate D2E/DX2                !
 ! D30   D(3,4,8,24)           -63.911          estimate D2E/DX2                !
 ! D31   D(5,4,8,9)            -65.3973         estimate D2E/DX2                !
 ! D32   D(5,4,8,23)           175.3392         estimate D2E/DX2                !
 ! D33   D(5,4,8,24)            59.2866         estimate D2E/DX2                !
 ! D34   D(4,5,6,7)           -167.6251         estimate D2E/DX2                !
 ! D35   D(4,5,6,19)            73.6388         estimate D2E/DX2                !
 ! D36   D(4,5,6,20)           -46.6908         estimate D2E/DX2                !
 ! D37   D(17,5,6,7)           -47.8233         estimate D2E/DX2                !
 ! D38   D(17,5,6,19)         -166.5594         estimate D2E/DX2                !
 ! D39   D(17,5,6,20)           73.111          estimate D2E/DX2                !
 ! D40   D(18,5,6,7)            65.6475         estimate D2E/DX2                !
 ! D41   D(18,5,6,19)          -53.0886         estimate D2E/DX2                !
 ! D42   D(18,5,6,20)         -173.4182         estimate D2E/DX2                !
 ! D43   D(5,6,7,21)           -62.3264         estimate D2E/DX2                !
 ! D44   D(5,6,7,22)          -178.1674         estimate D2E/DX2                !
 ! D45   D(19,6,7,21)           59.1903         estimate D2E/DX2                !
 ! D46   D(19,6,7,22)          -56.6508         estimate D2E/DX2                !
 ! D47   D(20,6,7,21)          175.9192         estimate D2E/DX2                !
 ! D48   D(20,6,7,22)           60.0781         estimate D2E/DX2                !
 ! D49   D(4,8,9,10)          -178.7554         estimate D2E/DX2                !
 ! D50   D(4,8,9,25)            61.5746         estimate D2E/DX2                !
 ! D51   D(4,8,9,26)           -58.1357         estimate D2E/DX2                !
 ! D52   D(23,8,9,10)          -58.0943         estimate D2E/DX2                !
 ! D53   D(23,8,9,25)         -177.7643         estimate D2E/DX2                !
 ! D54   D(23,8,9,26)           62.5254         estimate D2E/DX2                !
 ! D55   D(24,8,9,10)           56.4226         estimate D2E/DX2                !
 ! D56   D(24,8,9,25)          -63.2474         estimate D2E/DX2                !
 ! D57   D(24,8,9,26)          177.0423         estimate D2E/DX2                !
 ! D58   D(8,9,10,27)          -62.7209         estimate D2E/DX2                !
 ! D59   D(8,9,10,28)         -178.226          estimate D2E/DX2                !
 ! D60   D(25,9,10,27)          59.574          estimate D2E/DX2                !
 ! D61   D(25,9,10,28)         -55.9311         estimate D2E/DX2                !
 ! D62   D(26,9,10,27)         176.188          estimate D2E/DX2                !
 ! D63   D(26,9,10,28)          60.6829         estimate D2E/DX2                !
 --------------------------------------------------------------------------------
 Trust Radius=3.00D-01 FncErr=1.00D-07 GrdErr=1.00D-06 EigMax=2.50D+02 EigMin=1.00D-04
 Number of steps in this run=    148 maximum allowed number of steps=    168.
 GradGradGradGradGradGradGradGradGradGradGradGradGradGradGradGradGradGrad

                          Input orientation:                          
 ---------------------------------------------------------------------
 Center     Atomic      Atomic             Coordinates (Angstroms)
 Number     Number       Type             X           Y           Z
 ---------------------------------------------------------------------
      1          7           0        0.773180   -0.330460    0.516350
      2          6           0        2.198460   -0.240620    0.175620
      3          6           0        2.980900    0.557140    1.240000
      4          7           0        4.464090    0.583070    1.116160
      5          6           0        4.946910    1.501500    0.056100
      6          6           0        4.802250    1.012630   -1.399910
      7          7           0        5.565820    1.855790   -2.327440
      8          6           0        5.000420    1.011250    2.443430
      9          6           0        6.532520    0.919080    2.634230
     10          7           0        6.922310    1.339860    3.986030
     11          1           0        0.282530   -0.816650   -0.233330
     12          1           0        0.372030    0.604880    0.561190
     13          1           0        2.252480    0.236780   -0.800590
     14          1           0        2.607370   -1.252000    0.085800
     15          1           0        2.726240    0.079300    2.196040
     16          1           0        2.589060    1.580950    1.297770
     17          1           0        6.022900    1.651410    0.188010
     18          1           0        4.485420    2.491680    0.165720
     19          1           0        3.764050    1.051820   -1.728290
     20          1           0        5.155090   -0.020120   -1.489330
     21          1           0        5.200920    2.806910   -2.302800
     22          1           0        5.419510    1.518710   -3.278470
     23          1           0        4.562360    0.367860    3.219480
     24          1           0        4.669280    2.036680    2.659970
     25          1           0        7.066680    1.560200    1.928920
     26          1           0        6.865020   -0.111270    2.471990
     27          1           0        6.672390    2.317500    4.121150
     28          1           0        7.937820    1.294300    4.065040
 ---------------------------------------------------------------------
                    Distance matrix (angstroms):
                    1          2          3          4          5
     1  N    0.000000
     2  C    1.468193   0.000000
     3  C    2.487073   1.543223   0.000000
     4  N    3.849302   2.587694   1.488577   0.000000
     5  C    4.581259   3.256262   2.481659   1.483360   0.000000
     6  C    4.659329   3.291300   3.239431   2.574778   1.542688
     7  N    5.986337   4.690347   4.592922   3.833015   2.487938
     8  C    4.835637   3.815904   2.394352   1.494200   2.437735
     9  C    6.262329   5.116028   3.832608   2.587632   3.082228
    10  N    7.255374   6.271515   4.867036   3.853794   4.401441
    11  H    1.019381   2.042018   3.367373   4.611484   5.216707
    12  H    1.018721   2.049239   2.696157   4.129579   4.689197
    13  H    2.060199   1.088033   2.190259   2.947044   3.097319
    14  H    2.097346   1.094607   2.178231   2.806516   3.613321
    15  H    2.608391   2.112581   1.098724   2.107142   3.396082
    16  H    2.749823   2.174835   1.097754   2.131780   2.665992
    17  H    5.620959   4.266881   3.399687   2.105398   1.094362
    18  H    4.676338   3.563109   2.675837   2.132272   1.097928
    19  H    3.986779   2.783226   3.109466   2.966594   2.187560
    20  H    4.829099   3.400344   3.536888   2.762227   2.178766
    21  H    6.115192   4.944165   4.747777   4.144595   2.707956
    22  H    6.277617   5.039955   5.223792   4.593585   3.367938
    23  H    4.706639   3.901712   2.540705   2.116584   3.382306
    24  H    5.037664   4.178880   2.656310   2.130360   2.672758
    25  H    6.721465   5.478739   4.263137   2.896349   2.829192
    26  H    6.401803   5.202579   4.129281   2.843387   3.480905
    27  H    7.403172   6.490550   5.002698   4.112761   4.490854
    28  H    8.158745   7.100973   5.752852   4.611783   5.006004
                    6          7          8          9         10
     6  C    0.000000
     7  N    1.467743   0.000000
     8  C    3.848446   4.877922   0.000000
     9  C    4.390543   5.141022   1.546684   0.000000
    10  N    5.797420   6.478129   2.486214   1.468453   0.000000
    11  H    5.013486   6.280158   5.724050   7.092111   8.157218
    12  H    4.861998   6.073254   5.012979   6.507523   7.428048
    13  H    2.731749   3.991326   4.321417   5.530123   6.777598
    14  H    3.486170   4.922856   4.050606   5.158962   6.367750
    15  H    4.255794   5.628588   2.470147   3.922373   4.732872
    16  H    3.535347   4.698807   2.729790   4.216050   5.105088
    17  H    2.102265   2.564797   2.557770   2.603846   3.915477
    18  H    2.176963   2.790603   2.764934   3.571727   4.675456
    19  H    1.089600   2.061971   4.351265   5.168523   6.535367
    20  H    1.095018   2.095272   4.068691   4.447826   5.912037
    21  H    2.047825   1.019013   5.078513   5.450810   6.683173
    22  H    2.041106   1.019553   5.759626   6.046352   7.420469
    23  H    4.670336   5.830025   1.099136   2.127884   2.664910
    24  H    4.189151   5.070578   1.099113   2.172868   2.705575
    25  H    4.063076   4.522892   2.198976   1.092623   2.073908
    26  H    4.528773   5.347128   2.176603   1.094760   2.097946
    27  H    5.973459   6.559115   2.704906   2.045990   1.018085
    28  H    6.306886   6.841451   3.367203   2.040313   1.019597
                   11         12         13         14         15
    11  H    0.000000
    12  H    1.630957   0.000000
    13  H    2.304821   2.350752   0.000000
    14  H    2.386683   2.944613   1.768644   0.000000
    15  H    3.560377   2.913979   3.037933   2.497920   0.000000
    16  H    3.662354   2.531894   2.514596   3.081365   1.755181
    17  H    6.262643   5.759064   4.146634   4.483981   4.167935
    18  H    5.363634   4.542729   3.317281   4.189105   3.610608
    19  H    4.224579   4.116707   1.951861   3.152208   4.174112
    20  H    5.094491   5.241462   2.994245   3.238741   4.414878
    21  H    6.450074   6.030717   4.189929   5.376492   5.814074
    22  H    6.412125   6.407428   4.220582   5.186837   6.268641
    23  H    5.625114   4.968053   4.638285   4.033098   2.121799
    24  H    5.979653   4.992122   4.588686   4.657600   2.796779
    25  H    7.506626   6.899396   5.690183   5.584891   4.593891
    26  H    7.151608   6.806096   5.666255   5.012260   4.152345
    27  H    8.343543   7.436459   6.934589   6.749057   4.928254
    28  H    9.029704   8.366208   7.557499   7.122618   5.668329
                   16         17         18         19         20
    16  H    0.000000
    17  H    3.609403   0.000000
    18  H    2.388964   1.752254   0.000000
    19  H    3.289015   3.022270   2.486131   0.000000
    20  H    4.112890   2.522018   3.081686   1.772329   0.000000
    21  H    4.613989   2.866176   2.589382   2.339871   2.942097
    22  H    5.381198   3.521104   3.698870   2.315511   2.374645
    23  H    3.009729   3.601456   3.720481   5.058214   4.761801
    24  H    2.527962   2.844522   2.542069   4.587616   4.656515
    25  H    4.521931   2.031887   3.261814   4.953887   4.223271
    26  H    4.746181   3.005457   4.213873   5.348939   4.315579
    27  H    5.018721   4.041671   4.523119   6.654047   6.264515
    28  H    6.029029   4.338872   5.343920   7.144356   6.349985
                   21         22         23         24         25
    21  H    0.000000
    22  H    1.630697   0.000000
    23  H    6.070610   6.654511   0.000000
    24  H    5.050246   6.008012   1.763361   0.000000
    25  H    4.789864   5.461850   3.059222   2.551273   0.000000
    26  H    5.838118   6.149319   2.467904   3.077385   1.769012
    27  H    6.608470   7.547327   3.011035   2.495267   2.352624
    28  H    7.094223   7.766555   3.600971   3.634378   2.322196
                   26         27         28
    26  H    0.000000
    27  H    2.942067   0.000000
    28  H    2.379986   1.628312   0.000000
 Stoichiometry    C6H18N4
 Framework group  C1[X(C6H18N4)]
 Deg. of freedom    78
 Full point group                 C1      NOp   1
 Largest Abelian subgroup         C1      NOp   1
 Largest concise Abelian subgroup C1      NOp   1
                         Standard orientation:                         
 ---------------------------------------------------------------------
 Center     Atomic      Atomic             Coordinates (Angstroms)
 Number     Number       Type             X           Y           Z
 ---------------------------------------------------------------------
      1          7           0       -3.146595   -2.192347    0.064575
      2          6           0       -2.269248   -1.099346   -0.372692
      3          6           0       -0.864774   -1.221502    0.255056
      4          7           0        0.181751   -0.281478   -0.231774
      5          6           0        0.041195    1.087943    0.320754
      6          6           0       -1.073704    1.965866   -0.284339
      7          7           0       -0.932050    3.369009    0.122345
      8          6           0        1.500388   -0.858900    0.168740
      9          6           0        2.761308   -0.168545   -0.401980
     10          7           0        3.983443   -0.849747    0.043784
     11          1           0       -4.076681   -2.048527   -0.327081
     12          1           0       -3.254609   -2.160787    1.077062
     13          1           0       -2.759281   -0.173871   -0.077430
     14          1           0       -2.197297   -1.115922   -1.464806
     15          1           0       -0.539058   -2.244972    0.023512
     16          1           0       -0.941840   -1.166919    1.348740
     17          1           0        0.963655    1.641445    0.119931
     18          1           0       -0.061748    1.053085    1.413290
     19          1           0       -2.057890    1.642886    0.053732
     20          1           0       -1.047649    1.910652   -1.377654
     21          1           0       -1.022623    3.441397    1.134741
     22          1           0       -1.702572    3.907642   -0.272191
     23          1           0        1.544565   -1.900131   -0.180528
     24          1           0        1.569613   -0.890840    1.265206
     25          1           0        2.833925    0.872184   -0.077275
     26          1           0        2.726491   -0.178859   -1.496137
     27          1           0        4.054122   -0.788567    1.057568
     28          1           0        4.792037   -0.351056   -0.326435
 ---------------------------------------------------------------------
 Rotational constants (GHZ):           1.1932328           0.7098924           0.4644745
 Standard basis: 6-311++G(d,p) (5D, 7F)
 There are   356 symmetry adapted cartesian basis functions of A   symmetry.
 There are   346 symmetry adapted basis functions of A   symmetry.
   346 basis functions,   522 primitive gaussians,   356 cartesian basis functions
    41 alpha electrons       41 beta electrons
       nuclear repulsion energy       570.8561092905 Hartrees.
 NAtoms=   28 NActive=   28 NUniq=   28 SFac= 1.00D+00 NAtFMM=   60 NAOKFM=F Big=F
 Integral buffers will be    131072 words long.
 Raffenetti 2 integral format.
 Two-electron integral symmetry is turned on.
 One-electron integrals computed using PRISM.
 NBasis=   346 RedAO= T EigKep=  5.41D-06  NBF=   346
 NBsUse=   346 1.00D-06 EigRej= -1.00D+00 NBFU=   346
 ExpMin= 3.60D-02 ExpMax= 6.29D+03 ExpMxC= 9.49D+02 IAcc=3 IRadAn=         5 AccDes= 0.00D+00
 Harris functional with IExCor=  402 and IRadAn=       5 diagonalized for initial guess.
 HarFok:  IExCor=  402 AccDes= 0.00D+00 IRadAn=         5 IDoV= 1 UseB2=F ITyADJ=14
 ICtDFT=  3500011 ScaDFX=  1.000000  1.000000  1.000000  1.000000
 FoFCou: FMM=F IPFlag=           0 FMFlag=      100000 FMFlg1=           0
         NFxFlg=           0 DoJE=T BraDBF=F KetDBF=T FulRan=T
         wScrn=  0.000000 ICntrl=       500 IOpCl=  0 I1Cent=   200000004 NGrid=           0
         NMat0=    1 NMatS0=      1 NMatT0=    0 NMatD0=    1 NMtDS0=    0 NMtDT0=    0
 Petite list used in FoFCou.
 Requested convergence on RMS density matrix=1.00D-08 within 128 cycles.
 Requested convergence on MAX density matrix=1.00D-06.
 Requested convergence on             energy=1.00D-06.
 No special actions if energy rises.
 SCF Done:  E(RB3LYP) =  -458.579910348     A.U. after   12 cycles
            NFock= 12  Conv=0.75D-08     -V/T= 2.0048

 **********************************************************************

            Population analysis using the SCF density.

 **********************************************************************

 Orbital symmetries:
       Occupied  (A) (A) (A) (A) (A) (A) (A) (A) (A) (A) (A) (A)
                 (A) (A) (A) (A) (A) (A) (A) (A) (A) (A) (A) (A)
                 (A) (A) (A) (A) (A) (A) (A) (A) (A) (A) (A) (A)
                 (A) (A) (A) (A) (A)
       Virtual   (A) (A) (A) (A) (A) (A) (A) (A) (A) (A) (A) (A)
                 (A) (A) (A) (A) (A) (A) (A) (A) (A) (A) (A) (A)
                 (A) (A) (A) (A) (A) (A) (A) (A) (A) (A) (A) (A)
                 (A) (A) (A) (A) (A) (A) (A) (A) (A) (A) (A) (A)
                 (A) (A) (A) (A) (A) (A) (A) (A) (A) (A) (A) (A)
                 (A) (A) (A) (A) (A) (A) (A) (A) (A) (A) (A) (A)
                 (A) (A) (A) (A) (A) (A) (A) (A) (A) (A) (A) (A)
                 (A) (A) (A) (A) (A) (A) (A) (A) (A) (A) (A) (A)
                 (A) (A) (A) (A) (A) (A) (A) (A) (A) (A) (A) (A)
                 (A) (A) (A) (A) (A) (A) (A) (A) (A) (A) (A) (A)
                 (A) (A) (A) (A) (A) (A) (A) (A) (A) (A) (A) (A)
                 (A) (A) (A) (A) (A) (A) (A) (A) (A) (A) (A) (A)
                 (A) (A) (A) (A) (A) (A) (A) (A) (A) (A) (A) (A)
                 (A) (A) (A) (A) (A) (A) (A) (A) (A) (A) (A) (A)
                 (A) (A) (A) (A) (A) (A) (A) (A) (A) (A) (A) (A)
                 (A) (A) (A) (A) (A) (A) (A) (A) (A) (A) (A) (A)
                 (A) (A) (A) (A) (A) (A) (A) (A) (A) (A) (A) (A)
                 (A) (A) (A) (A) (A) (A) (A) (A) (A) (A) (A) (A)
                 (A) (A) (A) (A) (A) (A) (A) (A) (A) (A) (A) (A)
                 (A) (A) (A) (A) (A) (A) (A) (A) (A) (A) (A) (A)
                 (A) (A) (A) (A) (A) (A) (A) (A) (A) (A) (A) (A)
                 (A) (A) (A) (A) (A) (A) (A) (A) (A) (A) (A) (A)
                 (A) (A) (A) (A) (A) (A) (A) (A) (A) (A) (A) (A)
                 (A) (A) (A) (A) (A) (A) (A) (A) (A) (A) (A) (A)
                 (A) (A) (A) (A) (A) (A) (A) (A) (A) (A) (A) (A)
                 (A) (A) (A) (A) (A)
 The electronic state is 1-A.
 Alpha  occ. eigenvalues --  -14.31595 -14.29789 -14.29639 -14.29598 -10.19591
 Alpha  occ. eigenvalues --  -10.19543 -10.19481 -10.19408 -10.19361 -10.19276
 Alpha  occ. eigenvalues --   -0.92318  -0.88838  -0.88757  -0.87970  -0.73610
 Alpha  occ. eigenvalues --   -0.73543  -0.67849  -0.62001  -0.60207  -0.57986
 Alpha  occ. eigenvalues --   -0.50678  -0.50278  -0.48898  -0.48061  -0.47255
 Alpha  occ. eigenvalues --   -0.44899  -0.44100  -0.43914  -0.43675  -0.41273
 Alpha  occ. eigenvalues --   -0.40598  -0.38117  -0.36039  -0.35484  -0.35056
 Alpha  occ. eigenvalues --   -0.34523  -0.34081  -0.25275  -0.24349  -0.23794
 Alpha  occ. eigenvalues --   -0.22823
 Alpha virt. eigenvalues --   -0.01934  -0.00948  -0.00408   0.00255   0.01681
 Alpha virt. eigenvalues --    0.02069   0.02597   0.02927   0.03138   0.04614
 Alpha virt. eigenvalues --    0.04976   0.05323   0.05772   0.06427   0.06531
 Alpha virt. eigenvalues --    0.07053   0.07869   0.08770   0.08927   0.09219
 Alpha virt. eigenvalues --    0.09772   0.10537   0.11022   0.11353   0.11632
 Alpha virt. eigenvalues --    0.12141   0.12560   0.12791   0.13279   0.13440
 Alpha virt. eigenvalues --    0.14494   0.14909   0.15039   0.15437   0.15654
 Alpha virt. eigenvalues --    0.16241   0.16624   0.16882   0.17016   0.17424
 Alpha virt. eigenvalues --    0.17596   0.18181   0.18542   0.18747   0.18915
 Alpha virt. eigenvalues --    0.19826   0.20206   0.20467   0.20890   0.21148
 Alpha virt. eigenvalues --    0.21431   0.21726   0.21959   0.22632   0.23143
 Alpha virt. eigenvalues --    0.24059   0.24334   0.24876   0.25064   0.25535
 Alpha virt. eigenvalues --    0.26135   0.26663   0.27094   0.27692   0.28232
 Alpha virt. eigenvalues --    0.29337   0.29477   0.29968   0.31056   0.31258
 Alpha virt. eigenvalues --    0.31644   0.32205   0.32663   0.33325   0.33753
 Alpha virt. eigenvalues --    0.34399   0.35049   0.35146   0.36316   0.36793
 Alpha virt. eigenvalues --    0.37320   0.38450   0.40349   0.40743   0.41711
 Alpha virt. eigenvalues --    0.46683   0.48327   0.49871   0.51221   0.51658
 Alpha virt. eigenvalues --    0.52397   0.52984   0.54504   0.54930   0.57663
 Alpha virt. eigenvalues --    0.59270   0.59856   0.60745   0.61098   0.61910
 Alpha virt. eigenvalues --    0.62295   0.63117   0.64669   0.66388   0.68672
 Alpha virt. eigenvalues --    0.68981   0.69151   0.70116   0.70889   0.72361
 Alpha virt. eigenvalues --    0.72742   0.72987   0.73253   0.74779   0.75391
 Alpha virt. eigenvalues --    0.76343   0.76695   0.77851   0.77925   0.79293
 Alpha virt. eigenvalues --    0.81530   0.83205   0.83844   0.86158   0.86876
 Alpha virt. eigenvalues --    0.87098   0.88361   0.88632   0.89878   0.91485
 Alpha virt. eigenvalues --    0.92831   0.94253   0.96045   0.97210   0.98010
 Alpha virt. eigenvalues --    0.99807   1.02237   1.03484   1.07699   1.11377
 Alpha virt. eigenvalues --    1.15389   1.16938   1.19783   1.21414   1.24161
 Alpha virt. eigenvalues --    1.24659   1.26410   1.27564   1.28170   1.29530
 Alpha virt. eigenvalues --    1.31769   1.37686   1.40118   1.40600   1.44613
 Alpha virt. eigenvalues --    1.46531   1.48738   1.49193   1.51807   1.53473
 Alpha virt. eigenvalues --    1.54162   1.54579   1.55611   1.56805   1.58061
 Alpha virt. eigenvalues --    1.59031   1.59293   1.59612   1.62107   1.62450
 Alpha virt. eigenvalues --    1.64464   1.65545   1.66288   1.67525   1.68782
 Alpha virt. eigenvalues --    1.69826   1.70350   1.71233   1.71583   1.73618
 Alpha virt. eigenvalues --    1.74472   1.75970   1.77166   1.77797   1.78040
 Alpha virt. eigenvalues --    1.81022   1.82257   1.84596   1.85468   1.86422
 Alpha virt. eigenvalues --    1.86709   1.87725   1.91360   1.91913   1.93712
 Alpha virt. eigenvalues --    1.94552   1.97731   1.99919   2.02537   2.06071
 Alpha virt. eigenvalues --    2.09637   2.10172   2.10546   2.11476   2.13708
 Alpha virt. eigenvalues --    2.16578   2.18294   2.21758   2.22968   2.24119
 Alpha virt. eigenvalues --    2.24775   2.26355   2.32693   2.34754   2.36026
 Alpha virt. eigenvalues --    2.39413   2.42303   2.43621   2.45137   2.46807
 Alpha virt. eigenvalues --    2.48368   2.51799   2.52805   2.53113   2.54119
 Alpha virt. eigenvalues --    2.55175   2.55690   2.56931   2.58999   2.59503
 Alpha virt. eigenvalues --    2.60183   2.61680   2.62812   2.65094   2.66321
 Alpha virt. eigenvalues --    2.67449   2.67951   2.69980   2.71007   2.71946
 Alpha virt. eigenvalues --    2.73196   2.73817   2.77364   2.78464   2.79011
 Alpha virt. eigenvalues --    2.80490   2.80872   2.82336   2.83445   2.83798
 Alpha virt. eigenvalues --    2.84862   2.85203   2.89403   2.90964   2.93494
 Alpha virt. eigenvalues --    2.97208   2.97717   3.00379   3.02285   3.03319
 Alpha virt. eigenvalues --    3.05167   3.08082   3.12755   3.14958   3.15860
 Alpha virt. eigenvalues --    3.18359   3.25271   3.30234   3.49071   3.51505
 Alpha virt. eigenvalues --    3.55218   3.56593   3.59229   3.71277   3.79505
 Alpha virt. eigenvalues --    3.80385   3.81258   3.82544   3.83309   3.84364
 Alpha virt. eigenvalues --    4.04910   4.07670   4.09227   4.17404   4.22409
 Alpha virt. eigenvalues --    4.22901   4.33782   4.71685   4.71893   4.72091
 Alpha virt. eigenvalues --    4.74525   4.76839   4.82970   4.90172   4.92573
 Alpha virt. eigenvalues --   23.83578  23.85296  23.88417  23.89490  23.91799
 Alpha virt. eigenvalues --   23.92807  35.52101  35.59331  35.59989  35.60366
          Condensed to atoms (all electrons):
               1          2          3          4          5          6
     1  N    6.672097   0.090546  -0.004033  -0.005798  -0.033683   0.034238
     2  C    0.090546   6.655163  -0.528402  -0.105777   0.304212  -0.190439
     3  C   -0.004033  -0.528402   7.092587   0.386027  -0.926450   0.520563
     4  N   -0.005798  -0.105777   0.386027   7.005207  -0.042684   0.077605
     5  C   -0.033683   0.304212  -0.926450  -0.042684   7.173779  -1.077883
     6  C    0.034238  -0.190439   0.520563   0.077605  -1.077883   6.990659
     7  N   -0.005250   0.031723  -0.066275  -0.011213   0.047720   0.021702
     8  C   -0.029676  -0.129052  -0.694208  -0.047255   0.313280  -0.446472
     9  C    0.006171  -0.041813  -0.223210  -0.024588  -0.120412   0.155533
    10  N   -0.000368   0.002875  -0.019047  -0.002333   0.021520  -0.004158
    11  H    0.397978   0.005710  -0.033478  -0.002449   0.001789  -0.000719
    12  H    0.400267  -0.129000   0.051508   0.001083   0.001657   0.001704
    13  H   -0.158105   0.127317   0.151903  -0.014037   0.038024  -0.058087
    14  H   -0.032914   0.464207  -0.106204   0.026039   0.001614   0.004016
    15  H    0.010145  -0.107352   0.453245  -0.081097   0.004731   0.005869
    16  H    0.020041  -0.027869   0.300513  -0.082008  -0.036539   0.015893
    17  H   -0.003711   0.019238  -0.055026  -0.106229   0.479459  -0.192843
    18  H   -0.003824   0.021312  -0.081626  -0.072773   0.352600  -0.053051
    19  H    0.006092  -0.057896   0.089648  -0.001083   0.055997   0.259539
    20  H   -0.003871   0.001648  -0.012306   0.019770  -0.080808   0.444483
    21  H   -0.000240  -0.001577   0.001227  -0.002540   0.008590  -0.073424
    22  H   -0.000128   0.001533  -0.000809  -0.000879   0.002025  -0.044056
    23  H   -0.003430  -0.008830  -0.044644  -0.088005   0.034454  -0.019298
    24  H   -0.004093   0.007506  -0.001686  -0.042964  -0.013062  -0.014336
    25  H    0.000917  -0.008680   0.046965  -0.020049  -0.029255   0.005489
    26  H   -0.000208   0.003837   0.001526   0.025735   0.009954  -0.005747
    27  H    0.000046   0.000498   0.016391  -0.000726   0.003288   0.000508
    28  H   -0.000019   0.000009  -0.006566  -0.001564   0.001798   0.000011
               7          8          9         10         11         12
     1  N   -0.005250  -0.029676   0.006171  -0.000368   0.397978   0.400267
     2  C    0.031723  -0.129052  -0.041813   0.002875   0.005710  -0.129000
     3  C   -0.066275  -0.694208  -0.223210  -0.019047  -0.033478   0.051508
     4  N   -0.011213  -0.047255  -0.024588  -0.002333  -0.002449   0.001083
     5  C    0.047720   0.313280  -0.120412   0.021520   0.001789   0.001657
     6  C    0.021702  -0.446472   0.155533  -0.004158  -0.000719   0.001704
     7  N    6.672520   0.030346  -0.010589   0.000146  -0.000077  -0.000764
     8  C    0.030346   6.942755  -0.509697  -0.026187  -0.004680   0.010385
     9  C   -0.010589  -0.509697   6.596208   0.087263  -0.000002   0.000706
    10  N    0.000146  -0.026187   0.087263   6.666736  -0.000024   0.000044
    11  H   -0.000077  -0.004680  -0.000002  -0.000024   0.488028  -0.066857
    12  H   -0.000764   0.010385   0.000706   0.000044  -0.066857   0.495127
    13  H    0.009398   0.049591   0.003526   0.000919  -0.011746   0.010878
    14  H   -0.004409  -0.012741   0.003072  -0.000479  -0.011691   0.005953
    15  H   -0.001490   0.023467  -0.003667  -0.002613   0.004038  -0.000091
    16  H   -0.002595  -0.027105   0.006977  -0.004881   0.001575   0.002430
    17  H    0.015482   0.134877  -0.050972  -0.000394  -0.000220   0.000088
    18  H    0.017282  -0.000606   0.001307  -0.006066   0.000112  -0.000482
    19  H   -0.178858  -0.016450  -0.003767  -0.000652  -0.000671   0.001197
    20  H   -0.024194   0.012127  -0.002806   0.000254   0.000451  -0.000661
    21  H    0.404105   0.002694   0.000663   0.000241   0.000019  -0.000016
    22  H    0.401793  -0.001157  -0.000031  -0.000058  -0.000019   0.000008
    23  H    0.001070   0.501295  -0.089816   0.016641  -0.000504   0.000120
    24  H   -0.001578   0.279234  -0.031495   0.008564  -0.000312   0.001136
    25  H   -0.001894   0.150570   0.190230  -0.124758   0.000020   0.000019
    26  H    0.000766  -0.090109   0.437771  -0.045887   0.000010   0.000019
    27  H    0.000026   0.070285  -0.148000   0.396352   0.000002  -0.000008
    28  H   -0.000032  -0.038617   0.003663   0.396151  -0.000001   0.000001
              13         14         15         16         17         18
     1  N   -0.158105  -0.032914   0.010145   0.020041  -0.003711  -0.003824
     2  C    0.127317   0.464207  -0.107352  -0.027869   0.019238   0.021312
     3  C    0.151903  -0.106204   0.453245   0.300513  -0.055026  -0.081626
     4  N   -0.014037   0.026039  -0.081097  -0.082008  -0.106229  -0.072773
     5  C    0.038024   0.001614   0.004731  -0.036539   0.479459   0.352600
     6  C   -0.058087   0.004016   0.005869   0.015893  -0.192843  -0.053051
     7  N    0.009398  -0.004409  -0.001490  -0.002595   0.015482   0.017282
     8  C    0.049591  -0.012741   0.023467  -0.027105   0.134877  -0.000606
     9  C    0.003526   0.003072  -0.003667   0.006977  -0.050972   0.001307
    10  N    0.000919  -0.000479  -0.002613  -0.004881  -0.000394  -0.006066
    11  H   -0.011746  -0.011691   0.004038   0.001575  -0.000220   0.000112
    12  H    0.010878   0.005953  -0.000091   0.002430   0.000088  -0.000482
    13  H    0.892397  -0.102308   0.018585  -0.080522  -0.003629  -0.005131
    14  H   -0.102308   0.566628  -0.011048   0.032069  -0.002459   0.005450
    15  H    0.018585  -0.011048   0.580847  -0.059375  -0.003023  -0.007549
    16  H   -0.080522   0.032069  -0.059375   0.766083  -0.010914   0.075797
    17  H   -0.003629  -0.002459  -0.003023  -0.010914   0.637153  -0.065391
    18  H   -0.005131   0.005450  -0.007549   0.075797  -0.065391   0.747821
    19  H   -0.004988   0.005858  -0.000993  -0.012278   0.005910  -0.076452
    20  H    0.005452   0.000296  -0.001656   0.006253  -0.002378   0.027796
    21  H    0.002220  -0.000438  -0.000038   0.000160   0.003501   0.000943
    22  H   -0.001002   0.000205  -0.000162   0.000007   0.007059   0.000579
    23  H    0.005312  -0.004017  -0.001493  -0.005015   0.004418  -0.007024
    24  H    0.004244   0.001158  -0.008159   0.012610  -0.004955   0.035255
    25  H   -0.000934   0.000518   0.003810   0.003923  -0.015373  -0.009107
    26  H   -0.000592   0.001191  -0.002987   0.001599   0.001408   0.004634
    27  H   -0.000225   0.000104   0.000295   0.001066  -0.001727   0.000611
    28  H    0.000101  -0.000056  -0.000490  -0.000318   0.001264  -0.000379
              19         20         21         22         23         24
     1  N    0.006092  -0.003871  -0.000240  -0.000128  -0.003430  -0.004093
     2  C   -0.057896   0.001648  -0.001577   0.001533  -0.008830   0.007506
     3  C    0.089648  -0.012306   0.001227  -0.000809  -0.044644  -0.001686
     4  N   -0.001083   0.019770  -0.002540  -0.000879  -0.088005  -0.042964
     5  C    0.055997  -0.080808   0.008590   0.002025   0.034454  -0.013062
     6  C    0.259539   0.444483  -0.073424  -0.044056  -0.019298  -0.014336
     7  N   -0.178858  -0.024194   0.404105   0.401793   0.001070  -0.001578
     8  C   -0.016450   0.012127   0.002694  -0.001157   0.501295   0.279234
     9  C   -0.003767  -0.002806   0.000663  -0.000031  -0.089816  -0.031495
    10  N   -0.000652   0.000254   0.000241  -0.000058   0.016641   0.008564
    11  H   -0.000671   0.000451   0.000019  -0.000019  -0.000504  -0.000312
    12  H    0.001197  -0.000661  -0.000016   0.000008   0.000120   0.001136
    13  H   -0.004988   0.005452   0.002220  -0.001002   0.005312   0.004244
    14  H    0.005858   0.000296  -0.000438   0.000205  -0.004017   0.001158
    15  H   -0.000993  -0.001656  -0.000038  -0.000162  -0.001493  -0.008159
    16  H   -0.012278   0.006253   0.000160   0.000007  -0.005015   0.012610
    17  H    0.005910  -0.002378   0.003501   0.007059   0.004418  -0.004955
    18  H   -0.076452   0.027796   0.000943   0.000579  -0.007024   0.035255
    19  H    0.879410  -0.097691   0.001954  -0.003050   0.001206   0.001376
    20  H   -0.097691   0.559509   0.006644  -0.010646   0.000167   0.002221
    21  H    0.001954   0.006644   0.496502  -0.061751   0.000443   0.000073
    22  H   -0.003050  -0.010646  -0.061751   0.475248  -0.000086  -0.000100
    23  H    0.001206   0.000167   0.000443  -0.000086   0.586684  -0.059872
    24  H    0.001376   0.002221   0.000073  -0.000100  -0.059872   0.743594
    25  H    0.005797  -0.003265   0.000129  -0.000929   0.021341  -0.056729
    26  H   -0.000131   0.000821  -0.000220   0.000122  -0.014349   0.025009
    27  H    0.000029  -0.000062  -0.000014   0.000007   0.000337   0.003654
    28  H   -0.000098   0.000148   0.000028  -0.000007   0.002078   0.001757
              25         26         27         28
     1  N    0.000917  -0.000208   0.000046  -0.000019
     2  C   -0.008680   0.003837   0.000498   0.000009
     3  C    0.046965   0.001526   0.016391  -0.006566
     4  N   -0.020049   0.025735  -0.000726  -0.001564
     5  C   -0.029255   0.009954   0.003288   0.001798
     6  C    0.005489  -0.005747   0.000508   0.000011
     7  N   -0.001894   0.000766   0.000026  -0.000032
     8  C    0.150570  -0.090109   0.070285  -0.038617
     9  C    0.190230   0.437771  -0.148000   0.003663
    10  N   -0.124758  -0.045887   0.396352   0.396151
    11  H    0.000020   0.000010   0.000002  -0.000001
    12  H    0.000019   0.000019  -0.000008   0.000001
    13  H   -0.000934  -0.000592  -0.000225   0.000101
    14  H    0.000518   0.001191   0.000104  -0.000056
    15  H    0.003810  -0.002987   0.000295  -0.000490
    16  H    0.003923   0.001599   0.001066  -0.000318
    17  H   -0.015373   0.001408  -0.001727   0.001264
    18  H   -0.009107   0.004634   0.000611  -0.000379
    19  H    0.005797  -0.000131   0.000029  -0.000098
    20  H   -0.003265   0.000821  -0.000062   0.000148
    21  H    0.000129  -0.000220  -0.000014   0.000028
    22  H   -0.000929   0.000122   0.000007  -0.000007
    23  H    0.021341  -0.014349   0.000337   0.002078
    24  H   -0.056729   0.025009   0.003654   0.001757
    25  H    0.819603  -0.085265   0.005547  -0.007360
    26  H   -0.085265   0.573600   0.008500  -0.012374
    27  H    0.005547   0.008500   0.505010  -0.068819
    28  H   -0.007360  -0.012374  -0.068819   0.486244
 Mulliken charges:
               1
     1  N   -0.349192
     2  C   -0.400648
     3  C   -0.308131
     4  N    0.214585
     5  C   -0.495716
     6  C   -0.357302
     7  N   -0.344864
     8  C   -0.446897
     9  C   -0.232226
    10  N   -0.359801
    11  H    0.233719
    12  H    0.213551
    13  H    0.121439
    14  H    0.170386
    15  H    0.188252
    16  H    0.102422
    17  H    0.209388
    18  H    0.097961
    19  H    0.141045
    20  H    0.152306
    21  H    0.210122
    22  H    0.236283
    23  H    0.170818
    24  H    0.111949
    25  H    0.108717
    26  H    0.161366
    27  H    0.207022
    28  H    0.243447
 Sum of Mulliken charges =  -0.00000
 Mulliken charges with hydrogens summed into heavy atoms:
               1
     1  N    0.098077
     2  C   -0.108823
     3  C   -0.017457
     4  N    0.214585
     5  C   -0.188368
     6  C   -0.063950
     7  N    0.101541
     8  C   -0.164130
     9  C    0.037856
    10  N    0.090668
 Electronic spatial extent (au):  <R**2>=           2461.6205
 Charge=             -0.0000 electrons
 Dipole moment (field-independent basis, Debye):
    X=             -1.6185    Y=              2.0472    Z=              1.8212  Tot=              3.1824
 Quadrupole moment (field-independent basis, Debye-Ang):
   XX=            -56.0879   YY=            -78.0687   ZZ=            -63.5295
   XY=             -1.3683   XZ=              0.5228   YZ=             -0.4624
 Traceless Quadrupole moment (field-independent basis, Debye-Ang):
   XX=              9.8074   YY=            -12.1733   ZZ=              2.3659
   XY=             -1.3683   XZ=              0.5228   YZ=             -0.4624
 Octapole moment (field-independent basis, Debye-Ang**2):
  XXX=            -14.7711  YYY=             19.9367  ZZZ=              2.6892  XYY=            -18.4664
  XXY=             34.8843  XXZ=              6.7091  XZZ=             -1.2864  YZZ=              2.0613
  YYZ=              9.1396  XYZ=              0.1934
 Hexadecapole moment (field-independent basis, Debye-Ang**3):
 XXXX=          -1666.3778 YYYY=          -1327.0113 ZZZZ=           -158.4910 XXXY=            128.9980
 XXXZ=             20.0349 YYYX=           -128.4603 YYYZ=             11.5265 ZZZX=             -0.6285
 ZZZY=              1.5093 XXYY=           -579.7528 XXZZ=           -315.4902 YYZZ=           -202.4449
 XXYZ=            -27.0603 YYXZ=             -6.2529 ZZXY=              0.3209
 N-N= 5.708561092905D+02 E-N=-2.208201410950D+03  KE= 4.564086516514D+02
 Calling FoFJK, ICntrl=      2127 FMM=F ISym2X=0 I1Cent= 0 IOpClX= 0 NMat=1 NMatS=1 NMatT=0.
 ***** Axes restored to original set *****
 -------------------------------------------------------------------
 Center     Atomic                   Forces (Hartrees/Bohr)
 Number     Number              X              Y              Z
 -------------------------------------------------------------------
      1        7          -0.005193029   -0.001747002    0.007802437
      2        6           0.001393834    0.005808508   -0.007034674
      3        6           0.000523298   -0.011754548    0.001025842
      4        7          -0.002241882    0.004922173    0.003626545
      5        6           0.007482409   -0.007661914   -0.003298710
      6        6          -0.009376465    0.001553503   -0.001305888
      7        7           0.008280102    0.004460951   -0.000641621
      8        6           0.005115920   -0.009027604    0.000146588
      9        6          -0.000340958    0.004779625   -0.007378555
     10        7          -0.001793263   -0.001231266    0.006560402
     11        1           0.000847955    0.001044925    0.004169477
     12        1          -0.000092125   -0.002124103    0.000221439
     13        1           0.011276574    0.000944994   -0.004308995
     14        1           0.000473008    0.001493407    0.001807304
     15        1           0.003120780    0.002018230   -0.002317142
     16        1          -0.002618367    0.005039542   -0.001465249
     17        1          -0.002382757   -0.001061759    0.002022510
     18        1          -0.003916060    0.004751968   -0.000648842
     19        1          -0.006565451   -0.007200455    0.006181628
     20        1           0.000048507    0.001677839    0.002186851
     21        1           0.001634695   -0.001578738   -0.000769991
     22        1           0.002259486    0.001807406    0.003304346
     23        1          -0.000131311    0.002283137   -0.004629875
     24        1           0.000348101    0.004771927    0.001893105
     25        1          -0.002738496   -0.002669626   -0.010046764
     26        1          -0.001681330    0.000749359    0.000356308
     27        1           0.000349175   -0.001367546    0.000964364
     28        1          -0.004082349   -0.000682931    0.001577160
 -------------------------------------------------------------------
 Cartesian Forces:  Max     0.011754548 RMS     0.004277309

 GradGradGradGradGradGradGradGradGradGradGradGradGradGradGradGradGradGrad
 Berny optimization.
 FormGI is forming the generalized inverse of G from B-inverse, IUseBI=4.
 Internal  Forces:  Max     0.012994071 RMS     0.004203755
 Search for a local minimum.
 Step number   1 out of a maximum of  148
 All quantities printed in internal units (Hartrees-Bohrs-Radians)
 Mixed Optimization -- RFO/linear search
 Second derivative matrix not updated -- first step.
 ITU=  0
     Eigenvalues ---    0.00230   0.00230   0.00230   0.00446   0.00520
     Eigenvalues ---    0.00589   0.00786   0.00790   0.00796   0.02815
     Eigenvalues ---    0.03503   0.03571   0.03579   0.04251   0.04252
     Eigenvalues ---    0.04265   0.04497   0.04522   0.04553   0.05268
     Eigenvalues ---    0.05278   0.05292   0.05325   0.05349   0.05397
     Eigenvalues ---    0.09272   0.09326   0.09335   0.09856   0.09883
     Eigenvalues ---    0.09974   0.12668   0.12689   0.12698   0.13218
     Eigenvalues ---    0.13263   0.13310   0.15771   0.16000   0.16000
     Eigenvalues ---    0.16000   0.16000   0.16000   0.16000   0.17078
     Eigenvalues ---    0.21948   0.21965   0.21977   0.22012   0.22023
     Eigenvalues ---    0.22033   0.27935   0.28235   0.28282   0.32994
     Eigenvalues ---    0.33606   0.33778   0.33780   0.33824   0.33912
     Eigenvalues ---    0.33932   0.34188   0.34239   0.34268   0.34286
     Eigenvalues ---    0.34313   0.34511   0.34859   0.35041   0.35926
     Eigenvalues ---    0.35957   0.36012   0.44402   0.44410   0.44437
     Eigenvalues ---    0.44496   0.44543   0.44645
 RFO step:  Lambda=-1.51208177D-02 EMin= 2.30000000D-03
 Linear search not attempted -- first point.
 Iteration  1 RMS(Cart)=  0.11682551 RMS(Int)=  0.00371641
 Iteration  2 RMS(Cart)=  0.00656390 RMS(Int)=  0.00052834
 Iteration  3 RMS(Cart)=  0.00001282 RMS(Int)=  0.00052822
 Iteration  4 RMS(Cart)=  0.00000002 RMS(Int)=  0.00052822
 Variable       Old X    -DE/DX   Delta X   Delta X   Delta X     New X
                                 (Linear)    (Quad)   (Total)
    R1        2.77448   0.00731   0.00000   0.01951   0.01951   2.79399
    R2        1.92635  -0.00397   0.00000  -0.00865  -0.00865   1.91771
    R3        1.92510  -0.00190   0.00000  -0.00414  -0.00414   1.92097
    R4        2.91627  -0.00905   0.00000  -0.03042  -0.03042   2.88585
    R5        2.05608   0.00484   0.00000   0.01324   0.01324   2.06933
    R6        2.06851  -0.00135   0.00000  -0.00377  -0.00377   2.06473
    R7        2.81300  -0.00972   0.00000  -0.02767  -0.02767   2.78533
    R8        2.07629  -0.00362   0.00000  -0.01024  -0.01024   2.06605
    R9        2.07445   0.00556   0.00000   0.01568   0.01568   2.09013
   R10        2.80314  -0.00786   0.00000  -0.02203  -0.02203   2.78112
   R11        2.82363  -0.01184   0.00000  -0.03432  -0.03432   2.78931
   R12        2.91526  -0.00833   0.00000  -0.02796  -0.02796   2.88730
   R13        2.06804  -0.00224   0.00000  -0.00627  -0.00627   2.06178
   R14        2.07478   0.00587   0.00000   0.01656   0.01656   2.09135
   R15        2.77363   0.00783   0.00000   0.02087   0.02087   2.79450
   R16        2.05905   0.00413   0.00000   0.01137   0.01137   2.07041
   R17        2.06928  -0.00175   0.00000  -0.00488  -0.00488   2.06440
   R18        1.92566  -0.00208   0.00000  -0.00452  -0.00452   1.92114
   R19        1.92668  -0.00400   0.00000  -0.00872  -0.00872   1.91796
   R20        2.92281  -0.01115   0.00000  -0.03786  -0.03786   2.88495
   R21        2.07707  -0.00455   0.00000  -0.01290  -0.01290   2.06416
   R22        2.07702   0.00472   0.00000   0.01338   0.01338   2.09040
   R23        2.77497   0.00597   0.00000   0.01595   0.01595   2.79093
   R24        2.06476   0.00358   0.00000   0.00994   0.00994   2.07470
   R25        2.06880  -0.00127   0.00000  -0.00355  -0.00355   2.06525
   R26        1.92390  -0.00127   0.00000  -0.00275  -0.00275   1.92115
   R27        1.92676  -0.00391   0.00000  -0.00852  -0.00852   1.91824
    A1        1.90262   0.00241   0.00000   0.01737   0.01724   1.91985
    A2        1.91378   0.00148   0.00000   0.01199   0.01186   1.92565
    A3        1.85537  -0.00082   0.00000   0.00291   0.00265   1.85802
    A4        1.94310  -0.01279   0.00000  -0.05268  -0.05346   1.88965
    A5        1.85800   0.01299   0.00000   0.11416   0.11437   1.97237
    A6        1.90197   0.00227   0.00000  -0.01314  -0.01580   1.88617
    A7        1.94640  -0.00122   0.00000  -0.00484  -0.00407   1.94232
    A8        1.92285   0.00158   0.00000  -0.02870  -0.03047   1.89238
    A9        1.88940  -0.00223   0.00000  -0.00998  -0.01069   1.87871
   A10        2.04520  -0.00313   0.00000  -0.01518  -0.01524   2.02996
   A11        1.83155   0.00218   0.00000   0.00829   0.00805   1.83960
   A12        1.91499   0.00013   0.00000   0.00277   0.00279   1.91778
   A13        1.88694  -0.00137   0.00000  -0.01878  -0.01881   1.86813
   A14        1.92174   0.00228   0.00000   0.01553   0.01560   1.93735
   A15        1.85156   0.00011   0.00000   0.00854   0.00857   1.86013
   A16        1.97638   0.00157   0.00000   0.01775   0.01759   1.99397
   A17        1.86370   0.00143   0.00000   0.01660   0.01641   1.88011
   A18        1.91829  -0.00148   0.00000   0.00053   0.00016   1.91844
   A19        2.03505  -0.00133   0.00000  -0.00738  -0.00741   2.02764
   A20        1.89516  -0.00163   0.00000  -0.01717  -0.01716   1.87800
   A21        1.92861   0.00127   0.00000   0.00817   0.00820   1.93681
   A22        1.82283   0.00174   0.00000   0.00894   0.00884   1.83167
   A23        1.91837  -0.00034   0.00000  -0.00064  -0.00064   1.91772
   A24        1.85219   0.00042   0.00000   0.00917   0.00918   1.86137
   A25        1.94508  -0.01277   0.00000  -0.05225  -0.05297   1.89211
   A26        1.94163  -0.00072   0.00000  -0.00164  -0.00088   1.94075
   A27        1.92382   0.00127   0.00000  -0.03005  -0.03164   1.89217
   A28        1.85936   0.01248   0.00000   0.11004   0.11020   1.96957
   A29        1.89923   0.00269   0.00000  -0.00942  -0.01204   1.88718
   A30        1.89266  -0.00238   0.00000  -0.01197  -0.01272   1.87994
   A31        1.91199   0.00185   0.00000   0.01412   0.01398   1.92597
   A32        1.90169   0.00245   0.00000   0.01760   0.01745   1.91914
   A33        1.85434  -0.00098   0.00000   0.00215   0.00186   1.85619
   A34        2.03539  -0.00752   0.00000  -0.03402  -0.03409   2.00130
   A35        1.89270  -0.00025   0.00000  -0.01499  -0.01511   1.87759
   A36        1.91157   0.00446   0.00000   0.02817   0.02830   1.93986
   A37        1.84711   0.00360   0.00000   0.01303   0.01258   1.85968
   A38        1.90682   0.00090   0.00000   0.00473   0.00490   1.91171
   A39        1.86183  -0.00083   0.00000   0.00504   0.00503   1.86686
   A40        1.93845  -0.01100   0.00000  -0.04524  -0.04570   1.89274
   A41        1.94945  -0.00183   0.00000  -0.01133  -0.01074   1.93871
   A42        1.91629   0.00178   0.00000  -0.02151  -0.02278   1.89351
   A43        1.87165   0.01178   0.00000   0.10166   0.10180   1.97345
   A44        1.90233   0.00163   0.00000  -0.01199  -0.01380   1.88852
   A45        1.88399  -0.00189   0.00000  -0.00851  -0.00919   1.87480
   A46        1.90941   0.00173   0.00000   0.01424   0.01407   1.92348
   A47        1.89960   0.00259   0.00000   0.01920   0.01903   1.91863
   A48        1.85159  -0.00073   0.00000   0.00541   0.00505   1.85664
    D1        3.08610   0.00228   0.00000   0.06229   0.06172  -3.13537
    D2        0.96144   0.00297   0.00000   0.02596   0.02658   0.98802
    D3       -1.07270  -0.00248   0.00000  -0.01649  -0.01632  -1.08902
    D4        1.06154   0.00108   0.00000   0.04230   0.04158   1.10313
    D5       -1.06312   0.00176   0.00000   0.00597   0.00644  -1.05667
    D6       -3.09726  -0.00368   0.00000  -0.03648  -0.03645  -3.13371
    D7        3.01003  -0.00504   0.00000  -0.08604  -0.08547   2.92455
    D8        0.91707  -0.00303   0.00000  -0.05911  -0.05850   0.85857
    D9       -1.06556  -0.00432   0.00000  -0.07440  -0.07385  -1.13941
   D10       -1.20070   0.00206   0.00000   0.01989   0.01982  -1.18088
   D11        2.98953   0.00407   0.00000   0.04682   0.04680   3.03633
   D12        1.00689   0.00278   0.00000   0.03152   0.03145   1.03835
   D13        0.89783  -0.00049   0.00000  -0.01509  -0.01562   0.88220
   D14       -1.19513   0.00152   0.00000   0.01184   0.01135  -1.18378
   D15        3.10542   0.00023   0.00000  -0.00345  -0.00399   3.10143
   D16        1.33869   0.00094   0.00000   0.04502   0.04480   1.38348
   D17       -2.83085   0.00102   0.00000   0.06787   0.06786  -2.76298
   D18       -2.88112   0.00071   0.00000   0.03172   0.03174  -2.84938
   D19       -0.76747   0.00079   0.00000   0.05457   0.05481  -0.71266
   D20       -0.86559   0.00129   0.00000   0.03970   0.03957  -0.82602
   D21        1.24806   0.00137   0.00000   0.06255   0.06264   1.31070
   D22       -1.32855   0.00017   0.00000  -0.03046  -0.03042  -1.35897
   D23        2.90291  -0.00001   0.00000  -0.02454  -0.02461   2.87830
   D24        0.87818  -0.00027   0.00000  -0.03017  -0.03017   0.84801
   D25        2.87207  -0.00164   0.00000  -0.06358  -0.06352   2.80855
   D26        0.82035  -0.00182   0.00000  -0.05766  -0.05771   0.76264
   D27       -1.20438  -0.00209   0.00000  -0.06329  -0.06327  -1.26765
   D28        2.99158  -0.00168   0.00000  -0.06495  -0.06467   2.92692
   D29        0.91004  -0.00119   0.00000  -0.04791  -0.04812   0.86192
   D30       -1.11546  -0.00249   0.00000  -0.06090  -0.06094  -1.17640
   D31       -1.14140   0.00026   0.00000  -0.03253  -0.03226  -1.17366
   D32        3.06025   0.00075   0.00000  -0.01549  -0.01572   3.04453
   D33        1.03475  -0.00055   0.00000  -0.02847  -0.02854   1.00621
   D34       -2.92561   0.00452   0.00000   0.07533   0.07477  -2.85084
   D35        1.28524  -0.00232   0.00000  -0.02784  -0.02778   1.25746
   D36       -0.81491   0.00030   0.00000   0.00828   0.00883  -0.80608
   D37       -0.83467   0.00295   0.00000   0.05584   0.05524  -0.77944
   D38       -2.90701  -0.00390   0.00000  -0.04733  -0.04731  -2.95432
   D39        1.27603  -0.00128   0.00000  -0.01120  -0.01070   1.26533
   D40        1.14576   0.00416   0.00000   0.07064   0.07007   1.21583
   D41       -0.92657  -0.00269   0.00000  -0.03253  -0.03248  -0.95905
   D42       -3.02672  -0.00007   0.00000   0.00359   0.00413  -3.02259
   D43       -1.08780  -0.00113   0.00000  -0.03982  -0.03917  -1.12697
   D44       -3.10961  -0.00236   0.00000  -0.06008  -0.05959   3.11399
   D45        1.03307  -0.00151   0.00000  -0.00188  -0.00236   1.03071
   D46       -0.98874  -0.00273   0.00000  -0.02214  -0.02278  -1.01152
   D47        3.07037   0.00369   0.00000   0.03780   0.03788   3.10825
   D48        1.04856   0.00247   0.00000   0.01754   0.01746   1.06602
   D49       -3.11987   0.00471   0.00000   0.07714   0.07681  -3.04306
   D50        1.07468  -0.00155   0.00000  -0.01351  -0.01342   1.06126
   D51       -1.01466   0.00081   0.00000   0.01869   0.01904  -0.99562
   D52       -1.01394   0.00238   0.00000   0.04637   0.04595  -0.96798
   D53       -3.10257  -0.00388   0.00000  -0.04428  -0.04427   3.13634
   D54        1.09127  -0.00152   0.00000  -0.01208  -0.01182   1.07945
   D55        0.98476   0.00369   0.00000   0.06112   0.06077   1.04553
   D56       -1.10387  -0.00257   0.00000  -0.02953  -0.02946  -1.13333
   D57        3.08997  -0.00021   0.00000   0.00268   0.00300   3.09297
   D58       -1.09469  -0.00035   0.00000  -0.03039  -0.02979  -1.12448
   D59       -3.11063  -0.00186   0.00000  -0.05523  -0.05483   3.11773
   D60        1.03976  -0.00165   0.00000  -0.00572  -0.00607   1.03369
   D61       -0.97618  -0.00316   0.00000  -0.03056  -0.03111  -1.00729
   D62        3.07506   0.00334   0.00000   0.03297   0.03302   3.10808
   D63        1.05912   0.00183   0.00000   0.00813   0.00798   1.06710
         Item               Value     Threshold  Converged?
 Maximum Force            0.012994     0.000450     NO 
 RMS     Force            0.004204     0.000300     NO 
 Maximum Displacement     0.458100     0.001800     NO 
 RMS     Displacement     0.118230     0.001200     NO 
 Predicted change in Energy=-8.830718D-03
 GradGradGradGradGradGradGradGradGradGradGradGradGradGradGradGradGradGrad

                          Input orientation:                          
 ---------------------------------------------------------------------
 Center     Atomic      Atomic             Coordinates (Angstroms)
 Number     Number       Type             X           Y           Z
 ---------------------------------------------------------------------
      1          7           0        0.818698   -0.411469    0.658374
      2          6           0        2.213720   -0.244024    0.198057
      3          6           0        2.952550    0.623217    1.214983
      4          7           0        4.420117    0.672799    1.087451
      5          6           0        4.904805    1.575705    0.031160
      6          6           0        4.812167    1.049431   -1.400241
      7          7           0        5.685604    1.877286   -2.259644
      8          6           0        4.970932    1.085153    2.393307
      9          6           0        6.480663    0.906659    2.532999
     10          7           0        6.862586    1.227973    3.923003
     11          1           0        0.303978   -0.990275    0.002723
     12          1           0        0.344545    0.487374    0.682829
     13          1           0        2.284086    0.177980   -0.809947
     14          1           0        2.684598   -1.229756    0.177979
     15          1           0        2.730513    0.180665    2.189749
     16          1           0        2.520895    1.641510    1.225027
     17          1           0        5.969627    1.741386    0.201706
     18          1           0        4.414787    2.565569    0.100589
     19          1           0        3.773181    1.025636   -1.747103
     20          1           0        5.191546    0.025116   -1.416521
     21          1           0        5.343599    2.834041   -2.293932
     22          1           0        5.661926    1.531019   -3.213394
     23          1           0        4.511060    0.456114    3.158791
     24          1           0        4.698805    2.131158    2.628849
     25          1           0        7.019838    1.507416    1.788872
     26          1           0        6.724488   -0.142077    2.345662
     27          1           0        6.677496    2.207918    4.120446
     28          1           0        7.861203    1.094656    4.047067
 ---------------------------------------------------------------------
                    Distance matrix (angstroms):
                    1          2          3          4          5
     1  N    0.000000
     2  C    1.478517   0.000000
     3  C    2.435921   1.527126   0.000000
     4  N    3.785494   2.549466   1.473932   0.000000
     5  C    4.586777   3.252877   2.473857   1.471704   0.000000
     6  C    4.724395   3.313534   3.237164   2.546402   1.527892
     7  N    6.118822   4.753339   4.595139   3.775617   2.438930
     8  C    4.742459   3.766703   2.382373   1.476040   2.413452
     9  C    6.108152   4.998283   3.776915   2.527874   3.031526
    10  N    7.062163   6.136281   4.794526   3.783414   4.370385
    11  H    1.014806   2.059650   3.329844   4.570016   5.268080
    12  H    1.016532   2.064888   2.665207   4.099804   4.733403
    13  H    2.156566   1.095040   2.178399   2.899585   3.086951
    14  H    2.093312   1.092610   2.140253   2.731095   3.580710
    15  H    2.520073   2.101017   1.093307   2.076540   3.366480
    16  H    2.726406   2.168931   1.106051   2.136439   2.666960
    17  H    5.601374   4.248377   3.373394   2.080241   1.091046
    18  H    4.701673   3.570436   2.674461   2.134596   1.106692
    19  H    4.071923   2.797786   3.099892   2.928774   2.178387
    20  H    4.859793   3.398051   3.506514   2.698976   2.140637
    21  H    6.302711   5.047835   4.787206   4.117953   2.679926
    22  H    6.497745   5.165163   5.270232   4.558059   3.332021
    23  H    4.542942   3.812336   2.497052   2.084628   3.345235
    24  H    5.040134   4.210212   2.705977   2.140184   2.664386
    25  H    6.588952   5.356959   4.201666   2.819065   2.750924
    26  H    6.147996   4.996962   4.011437   2.749044   3.408657
    27  H    7.291957   6.428254   4.982792   4.080613   4.501598
    28  H    7.959179   6.964267   5.686637   4.558329   5.009911
                    6          7          8          9         10
     6  C    0.000000
     7  N    1.478786   0.000000
     8  C    3.797037   4.773697   0.000000
     9  C    4.274885   4.954156   1.526651   0.000000
    10  N    5.707277   6.327085   2.436949   1.476894   0.000000
    11  H    5.143197   6.504084   5.639393   6.939171   7.956416
    12  H    4.961324   6.254351   4.968554   6.422684   7.316561
    13  H    2.738442   4.069347   4.278194   5.414566   6.668280
    14  H    3.494570   4.960015   3.936217   4.951817   6.125456
    15  H    4.239819   5.604300   2.424667   3.835167   4.601635
    16  H    3.534476   4.713163   2.770757   4.234449   5.128388
    17  H    2.093979   2.481407   2.496227   2.528410   3.861220
    18  H    2.170040   2.767564   2.785226   3.596727   4.731990
    19  H    1.095615   2.155311   4.310585   5.065954   6.460299
    20  H    1.092435   2.094154   3.960700   4.247076   5.722740
    21  H    2.065415   1.016624   5.016742   5.320431   6.598261
    22  H    2.059501   1.014939   5.666689   5.837910   7.243037
    23  H    4.607327   5.723523   1.092309   2.115169   2.590262
    24  H    4.173314   4.993554   1.106191   2.164163   2.678157
    25  H    3.905637   4.278722   2.177537   1.097882   2.158085
    26  H    4.371321   5.134778   2.140870   1.092883   2.093827
    27  H    5.941340   6.465192   2.675064   2.062039   1.016629
    28  H    6.242742   6.717168   3.329967   2.057580   1.015087
                   11         12         13         14         15
    11  H    0.000000
    12  H    1.627156   0.000000
    13  H    2.438459   2.466967   0.000000
    14  H    2.399045   2.946058   1.765822   0.000000
    15  H    3.470195   2.838613   3.032735   2.457359   0.000000
    16  H    3.651717   2.522401   2.517761   3.060601   1.763149
    17  H    6.292944   5.783215   4.129273   4.429409   4.108530
    18  H    5.436208   4.607034   3.327092   4.171814   3.590144
    19  H    4.377346   4.236725   1.952994   3.158758   4.159319
    20  H    5.189759   5.302299   2.973991   3.225201   4.368760
    21  H    6.730364   6.273635   4.314799   5.449319   5.828552
    22  H    6.738541   6.674151   4.360857   5.290347   6.293695
    23  H    5.454571   4.846773   4.559348   3.881154   2.045791
    24  H    5.996198   5.044661   4.633691   4.621638   2.805602
    25  H    7.384549   6.842759   5.563147   5.374141   4.507691
    26  H    6.887071   6.623057   5.456874   4.711964   4.010025
    27  H    8.234428   7.408356   6.908797   6.580568   4.839009
    28  H    8.821299   8.257545   7.452189   6.868040   5.532539
                   16         17         18         19         20
    16  H    0.000000
    17  H    3.598738   0.000000
    18  H    2.388530   1.762677   0.000000
    19  H    3.283456   3.022338   2.489381   0.000000
    20  H    4.089362   2.483878   3.059228   1.766942   0.000000
    21  H    4.666140   2.795356   2.582344   2.456738   2.946698
    22  H    5.438554   3.435381   3.688920   2.443927   2.391182
    23  H    3.017510   3.538883   3.716405   4.993658   4.645676
    24  H    2.636999   2.767297   2.580984   4.607376   4.587290
    25  H    4.536121   1.917494   3.279677   4.824522   3.976734
    26  H    4.701829   2.951914   4.207899   5.179237   4.065942
    27  H    5.097215   4.009396   4.626771   6.652891   6.134384
    28  H    6.064805   4.333950   5.442064   7.091481   6.174284
                   21         22         23         24         25
    21  H    0.000000
    22  H    1.626226   0.000000
    23  H    6.006650   6.563890   0.000000
    24  H    5.014337   5.951434   1.766879   0.000000
    25  H    4.608578   5.183353   3.045633   2.545940   0.000000
    26  H    5.682426   5.901812   2.432750   3.057970   1.765807
    27  H    6.581455   7.434701   2.947378   2.479106   2.458483
    28  H    7.040743   7.598785   3.524235   3.617519   2.444936
                   26         27         28
    26  H    0.000000
    27  H    2.945257   0.000000
    28  H    2.390902   1.626622   0.000000
 Stoichiometry    C6H18N4
 Framework group  C1[X(C6H18N4)]
 Deg. of freedom    78
 Full point group                 C1      NOp   1
 Largest Abelian subgroup         C1      NOp   1
 Largest concise Abelian subgroup C1      NOp   1
                         Standard orientation:                         
 ---------------------------------------------------------------------
 Center     Atomic      Atomic             Coordinates (Angstroms)
 Number     Number       Type             X           Y           Z
 ---------------------------------------------------------------------
      1          7           0       -3.146051   -2.148416   -0.004892
      2          6           0       -2.293905   -1.000858   -0.383007
      3          6           0       -0.947302   -1.151989    0.321219
      4          7           0        0.135918   -0.267085   -0.143600
      5          6           0        0.063780    1.104946    0.383882
      6          6           0       -0.956616    2.029048   -0.278902
      7          7           0       -0.622267    3.425086    0.076198
      8          6           0        1.418944   -0.887031    0.241372
      9          6           0        2.649509   -0.262853   -0.411907
     10          7           0        3.832601   -1.066233   -0.043002
     11          1           0       -4.048074   -2.077164   -0.464357
     12          1           0       -3.330370   -2.137232    0.994728
     13          1           0       -2.754190   -0.033233   -0.157283
     14          1           0       -2.126235   -1.044184   -1.461806
     15          1           0       -0.629388   -2.179017    0.122561
     16          1           0       -1.083947   -1.070066    1.415735
     17          1           0        1.030268    1.578481    0.204863
     18          1           0       -0.088887    1.100372    1.479984
     19          1           0       -1.979960    1.752966   -0.001563
     20          1           0       -0.865751    1.922838   -1.362358
     21          1           0       -0.726750    3.570034    1.076996
     22          1           0       -1.271527    4.062102   -0.374106
     23          1           0        1.391019   -1.930353   -0.080867
     24          1           0        1.545945   -0.891931    1.340238
     25          1           0        2.746740    0.796267   -0.139590
     26          1           0        2.528342   -0.311868   -1.496945
     27          1           0        3.992537   -1.015827    0.959702
     28          1           0        4.662370   -0.683226   -0.484805
 ---------------------------------------------------------------------
 Rotational constants (GHZ):           1.1595570           0.7497781           0.4767652
 Standard basis: 6-311++G(d,p) (5D, 7F)
 There are   356 symmetry adapted cartesian basis functions of A   symmetry.
 There are   346 symmetry adapted basis functions of A   symmetry.
   346 basis functions,   522 primitive gaussians,   356 cartesian basis functions
    41 alpha electrons       41 beta electrons
       nuclear repulsion energy       575.1560549531 Hartrees.
 NAtoms=   28 NActive=   28 NUniq=   28 SFac= 1.00D+00 NAtFMM=   60 NAOKFM=F Big=F
 Integral buffers will be    131072 words long.
 Raffenetti 2 integral format.
 Two-electron integral symmetry is turned on.
 One-electron integrals computed using PRISM.
 NBasis=   346 RedAO= T EigKep=  5.16D-06  NBF=   346
 NBsUse=   346 1.00D-06 EigRej= -1.00D+00 NBFU=   346
 Initial guess from the checkpoint file:  "AC.chk"
 B after Tr=     0.000000    0.000000   -0.000000
         Rot=    0.999689    0.001413   -0.000035    0.024892 Ang=   2.86 deg.
 ExpMin= 3.60D-02 ExpMax= 6.29D+03 ExpMxC= 9.49D+02 IAcc=3 IRadAn=         5 AccDes= 0.00D+00
 Harris functional with IExCor=  402 and IRadAn=       5 diagonalized for initial guess.
 HarFok:  IExCor=  402 AccDes= 0.00D+00 IRadAn=         5 IDoV= 1 UseB2=F ITyADJ=14
 ICtDFT=  3500011 ScaDFX=  1.000000  1.000000  1.000000  1.000000
 FoFCou: FMM=F IPFlag=           0 FMFlag=      100000 FMFlg1=           0
         NFxFlg=           0 DoJE=T BraDBF=F KetDBF=T FulRan=T
         wScrn=  0.000000 ICntrl=       500 IOpCl=  0 I1Cent=   200000004 NGrid=           0
         NMat0=    1 NMatS0=      1 NMatT0=    0 NMatD0=    1 NMtDS0=    0 NMtDT0=    0
 Petite list used in FoFCou.
 Requested convergence on RMS density matrix=1.00D-08 within 128 cycles.
 Requested convergence on MAX density matrix=1.00D-06.
 Requested convergence on             energy=1.00D-06.
 No special actions if energy rises.
 SCF Done:  E(RB3LYP) =  -458.587245885     A.U. after   11 cycles
            NFock= 11  Conv=0.74D-08     -V/T= 2.0045
 Calling FoFJK, ICntrl=      2127 FMM=F ISym2X=0 I1Cent= 0 IOpClX= 0 NMat=1 NMatS=1 NMatT=0.
 ***** Axes restored to original set *****
 -------------------------------------------------------------------
 Center     Atomic                   Forces (Hartrees/Bohr)
 Number     Number              X              Y              Z
 -------------------------------------------------------------------
[...]
 194,-0.00107663,-0.00061005,0.00085825,-0.00057425,0.00074980,0.001746
 28,0.00326167,-0.00250734,0.01164309,-0.04110282,0.05850903,0.00005270
 ,0.00002154,-0.00002819,-0.00001393,-0.00002428,0.00000844,0.00010131,
 0.00006911,0.00007331,0.00068534,0.00022843,0.00015864,-0.00049132,-0.
 00146955,-0.00080979,-0.00666583,0.00189820,0.01352624,-0.03576639,0.0
 3358047,0.06147959,-0.00005378,-0.00008736,0.00018818,0.00005055,0.000
 02087,-0.00002305,-0.00006298,0.00001081,-0.00001986,-0.00000218,0.000
 00960,0.00001286,-0.00002234,-0.00001192,0.00000981,0.00001164,-0.0000
 2085,0.00000935,0.00000669,0.00000656,-0.00002649,0.00000928,-0.000008
 53,-0.00004768,-0.00003702,0.00002143,-0.00006371,0.00022405,-0.000015
 72,0.00029484,-0.00008122,-0.00022683,-0.00019667,-0.00040828,0.000802
 48,0.00042081,0.00079878,0.00043367,-0.00070239,-0.00931262,0.01015283
 ,0.02636046,0.05094767,-0.00000119,-0.00002868,-0.00001060,-0.00003342
 ,0.00004741,0.00003013,0.00019686,-0.00000682,0.00010021,-0.00006799,0
 .00027272,0.00177505,-0.00157544,-0.00457754,0.00052034,-0.00989139,0.
 00966287,0.03015495,0.05299188,-0.10230003,-0.11952641,-0.00040569,-0.
 00015877,0.00019828,-0.00004095,0.00002714,0.00001799,0.00002964,-0.00
 001894,-0.00000837,-0.00000934,-0.00000039,0.00000386,-0.00000810,0.00
 000737,0.00000284,0.00000979,-0.00001431,-0.00000858,0.00000648,0.0000
 0245,-0.00000608,-0.00004321,0.00000353,0.00001577,0.00002525,0.000004
 40,-0.00005585,0.00016397,-0.00013472,0.00000036,-0.00036202,0.0004236
 2,0.00003756,-0.00033113,0.00017320,0.00006059,0.00076587,0.00062546,-
 0.00016144,0.00390481,-0.00996456,-0.02942262,-0.04539769,0.10594576,0
 .00005157,0.00005730,-0.00000772,0.00004581,-0.00008853,-0.00001693,-0
 .00027516,0.00007904,-0.00018032,-0.00005738,-0.00052360,-0.00145328,0
 .00165034,0.00552229,-0.00052969,-0.00042050,-0.01160324,-0.01820367,0
 .10551339,-0.11217729,-0.36353233,0.00051036,0.00025343,0.00000274,0.0
 0007860,-0.00002173,-0.00002259,-0.00007263,0.00003021,-0.00002619,0.0
 0001423,0.00000828,0.00000865,0.00000358,-0.00000344,-0.00000099,-0.00
 000271,0.00001717,0.00000816,-0.00000862,-0.00000893,0.00000359,0.0000
 7685,-0.00001218,-0.00000756,0.00001530,-0.00002947,0.00004067,-0.0000
 5968,0.00005310,0.00039992,-0.00000070,-0.00005835,0.00041472,0.000328
 86,-0.00042075,0.00133467,-0.00063928,0.00016478,0.00053413,-0.0060507
 0,0.00268873,0.00400697,-0.10060436,0.11611919,0.37743470,0.00004393,0
 .00020248,-0.00014540,-0.00062688,-0.00071626,-0.00076364,0.00003329,0
 .00050870,-0.00149157,0.00768761,0.00639941,-0.00930394,-0.00077899,-0
 .00006954,-0.00270596,0.00029642,0.00060694,-0.00021661,0.00011362,-0.
 00011141,-0.00020462,-0.15768912,-0.08184859,0.10494261,-0.02429085,-0
 .01325478,0.01933836,0.00278587,-0.00020827,-0.00008854,0.00005527,0.0
 0002437,0.00002955,-0.00006220,-0.00000541,0.00002150,0.00003897,0.000
 04921,0.00004796,-0.00047402,-0.00062969,-0.00080468,0.00007377,0.0001
 3960,-0.00033350,0.00016025,-0.00008656,0.00005132,0.00009768,0.000099
 00,-0.00010833,0.00005276,0.00010972,0.00001956,-0.00003282,-0.0000007
 1,0.00008340,0.00000784,-0.00004958,-0.00003836,0.00000353,-0.00001231
 ,0.00001648,0.00002066,0.00004857,-0.00006805,0.17545278,0.00009914,-0
 .00006257,-0.00000413,-0.00049343,0.00004200,-0.00095578,-0.00104740,0
 .00092651,0.00077276,0.00368673,0.00131104,-0.00254671,-0.00084006,0.0
 0058333,0.00082814,0.00026620,-0.00000431,-0.00019112,-0.00001328,0.00
 001003,0.00004460,-0.08216303,-0.10709334,0.07476175,0.01252509,0.0061
 1276,-0.00889519,-0.00093596,-0.00002901,-0.00061070,0.00000993,0.0000
 1827,0.00001132,0.00001387,0.00001465,0.00002837,0.00000541,-0.0001256
 6,-0.00005583,-0.00078112,-0.00029246,-0.00044255,0.00038599,-0.000530
 78,0.00003982,0.00024836,-0.00020360,-0.00017563,0.00052267,0.00009992
 ,-0.00011479,0.00000989,0.00011954,-0.00029493,0.00004715,0.00007124,0
 .00016906,-0.00002238,0.00003913,0.00002834,-0.00001504,-0.00000841,-0
 .00001842,0.00002824,-0.00001145,0.00000487,0.08598725,0.11329919,0.00
 020278,-0.00018466,0.00051207,-0.00044946,0.00001869,-0.00078970,0.002
 43803,0.00130715,-0.00029637,0.01809315,0.01658078,-0.02516131,-0.0022
 8167,-0.00354027,-0.00460012,0.00044654,0.00177950,0.00002469,0.000243
 14,-0.00021804,-0.00078723,0.09704002,0.06908131,-0.14068012,-0.001023
 00,-0.00142575,0.00165626,-0.00037635,-0.00007735,0.00112024,-0.000038
 64,-0.00002114,-0.00001936,0.00018105,0.00008168,0.00001282,0.00011812
 ,0.00008201,0.00030941,-0.00051239,-0.00096710,0.00057990,-0.00067829,
 0.00040638,0.00035018,0.00009988,0.00008998,0.00048731,0.00012167,-0.0
 0025636,0.00019496,-0.00008750,0.00030944,-0.00022618,-0.00013982,-0.0
 0006664,-0.00008388,0.00003453,-0.00001957,0.00004849,-0.00000033,-0.0
 0000298,0.00004167,0.00001320,0.00015330,-0.00018195,-0.10722142,-0.07
 967915,0.16103222,-0.00019030,0.00001862,-0.00001765,-0.00002802,-0.00
 019997,0.00042072,0.00340800,-0.00172908,-0.00091808,-0.00112245,-0.01
 220348,-0.00883881,-0.00016108,-0.00062513,0.00190931,-0.00019401,0.00
 007203,0.00000857,0.00006053,0.00002953,-0.00012339,-0.05193452,-0.007
 04485,-0.00076069,-0.00047389,0.03187990,0.00569865,0.00173455,-0.0005
 4231,0.00142007,-0.00002540,-0.00000481,-0.00000282,-0.00002678,-0.000
 03998,-0.00000857,-0.00015366,0.00016506,-0.00011575,-0.00002396,0.000
 15857,-0.00022463,-0.00021324,0.00092981,0.00082744,-0.00020422,0.0002
 4430,0.00007544,0.00004839,0.00033846,0.00034886,-0.00008275,0.0005728
 5,0.00007716,-0.00000795,-0.00002612,0.00001327,-0.00001496,0.00003579
 ,0.00003447,0.00000899,-0.00000048,0.00001090,-0.00002183,0.00000859,-
 0.00002663,-0.00004339,-0.02048748,-0.00549671,0.05344673,-0.00035506,
 -0.00001529,0.00005359,0.00011212,0.00002312,0.00027422,0.00116366,-0.
 00006236,-0.00002354,-0.00222725,-0.00049104,-0.01004364,-0.00277711,0
 .00212823,0.00251774,0.00032156,0.00024851,0.00005307,0.00010172,0.000
 10279,-0.00026008,-0.00617422,-0.25696947,-0.04807646,-0.00077520,-0.0
 1656896,-0.00351212,-0.00063130,0.00153503,0.00033835,-0.00001877,-0.0
 0001635,-0.00003146,-0.00000703,-0.00003536,-0.00001463,0.00001074,0.0
 0022009,-0.00003620,0.00005657,0.00005432,-0.00016182,-0.00118576,-0.0
 0020815,-0.00017700,-0.00024542,0.00004230,-0.00006718,0.00082782,0.00
 027676,-0.00010634,0.00053636,0.00098637,-0.00177459,-0.00003981,0.000
 03856,0.00024154,-0.00005021,-0.00000565,0.00015917,-0.00002329,-0.000
 03349,-0.00000063,-0.00000156,0.00001803,-0.00004145,-0.00033477,-0.01
 523348,-0.00345414,0.00727517,0.28251818,-0.00031809,-0.00026294,0.000
 37548,-0.00033972,0.00054449,-0.00047056,0.00498422,-0.00108612,-0.001
 25797,-0.00896929,-0.03147100,-0.02714085,-0.00197629,-0.00390077,0.00
 311702,0.00019759,0.00027422,0.00005274,0.00012299,0.00023782,-0.00019
 065,0.00112228,-0.04998707,-0.05892955,0.00036746,0.00199367,0.0010850
 4,0.00024008,0.00064241,0.00068447,-0.00009330,-0.00003213,-0.00003376
 ,0.00011214,0.00001105,0.00002363,0.00005650,0.00021440,0.00012029,-0.
 00002011,-0.00017199,0.00034055,-0.00080469,0.00084683,0.00111533,-0.0
 0031395,0.00010456,0.00008092,0.00067893,0.00011557,-0.00033314,-0.000
 58631,0.00115889,-0.00005837,0.00014733,0.00013015,0.00028141,-0.00012
 854,0.00008411,0.00017598,-0.00000505,-0.00000017,-0.00006834,-0.00001
 246,0.00001070,-0.00001029,0.00023792,0.01761938,0.00614425,0.00659586
 ,0.06307660,0.07436158,-0.00003442,0.00004981,-0.00016343,0.00011148,-
 0.00004073,0.00020878,-0.00012049,-0.00008192,-0.00010520,0.00190449,0
 .00025341,0.00004898,-0.00145022,-0.00095173,-0.00024426,0.00014780,0.
 00028121,-0.00030969,0.00011792,-0.00004562,0.00000682,-0.02217221,-0.
 01297112,0.02022467,-0.15471042,-0.05878734,0.09861460,0.01152853,0.00
 535258,-0.01122422,0.00001841,0.00001326,0.00002223,-0.00004115,-0.000
 02442,-0.00000810,-0.00002614,-0.00004477,-0.00008420,0.00007396,0.000
 20407,-0.00013342,0.00032709,-0.00016923,-0.00002130,-0.00008543,-0.00
 004188,-0.00023421,0.00055131,0.00112710,-0.00037435,0.00043973,0.0001
 9019,0.00010311,0.00010755,0.00004639,0.00023091,-0.00002995,-0.000090
 95,-0.00014513,-0.00000071,-0.00001225,-0.00000185,0.00000347,0.000019
 64,-0.00001398,-0.00482178,0.00334000,-0.00097776,0.00137570,0.0002166
 6,-0.00013964,0.16633151,-0.00002689,0.00002272,0.00000240,0.00003034,
 0.00000690,0.00002661,0.00003883,-0.00003813,-0.00018145,-0.00074655,0
 .00008221,-0.00036440,0.00054131,-0.00018377,0.00040748,-0.00030740,0.
 00009706,-0.00004689,0.00006867,-0.00007895,-0.00001471,0.01061284,0.0
 0569879,-0.00878244,-0.05922996,-0.08850560,0.05632251,0.00424017,0.00
 586386,-0.00486851,0.00000897,-0.00000244,0.00000094,-0.00000478,-0.00
 000004,-0.00000185,-0.00000212,0.00001421,0.00005858,0.00005326,-0.000
 05811,-0.00001350,-0.00002358,0.00006725,0.00005048,-0.00005885,-0.000
 00073,0.00003143,0.00050294,-0.00034093,0.00081085,0.00016319,0.000009
 37,-0.00001742,0.00002073,-0.00004460,-0.00003295,0.00000816,-0.000057
 93,-0.00011590,0.00001353,-0.00000621,0.00002963,-0.00002801,0.0000101
 3,-0.00001913,0.00288859,-0.00009946,0.00019929,-0.00080863,0.00088159
 ,-0.00038890,0.06266102,0.08805037,-0.00004042,-0.00000332,0.00003535,
 0.00003791,-0.00004009,-0.00001891,0.00008570,-0.00007155,0.00029855,0
 .00053972,-0.00042627,0.00077579,-0.00027918,0.00116977,-0.00046953,-0
 .00001240,0.00003334,0.00018434,-0.00006820,0.00002097,-0.00002305,-0.
 00162709,-0.00099525,0.00250783,0.10117948,0.05592016,-0.14154599,0.01
 235333,0.00808119,-0.03666803,-0.00000084,-0.00000887,-0.00002046,0.00
 000444,0.00000407,-0.00000053,-0.00001026,0.00002145,0.00001504,0.0000
 0183,-0.00001460,0.00000443,-0.00005012,-0.00002120,-0.00009993,0.0001
 0475,0.00003261,0.00002775,-0.00082251,0.00023803,-0.00041262,-0.00032
 094,-0.00011979,-0.00010162,-0.00000792,-0.00005112,-0.00008286,0.0000
 5631,-0.00001728,0.00005654,-0.00000115,0.00000333,0.00001018,0.000003
 80,-0.00001424,0.00000430,-0.00143335,0.00038322,0.00000838,0.00039284
 ,0.00004814,0.00016472,-0.10839108,-0.06405411,0.16984757,0.00006871,-
 0.00007181,0.00006352,-0.00006980,0.00005348,-0.00025121,-0.00021253,-
 0.00001808,0.00018188,0.00174939,-0.00113017,0.00141281,-0.00016947,-0
 .00015647,-0.00010053,0.00012287,-0.00009249,-0.00003829,-0.00001648,0
 .00000978,0.00003552,-0.00057793,0.03266535,0.00475846,-0.04976040,-0.
 02342244,-0.00156159,-0.00132903,-0.01180479,-0.00528401,-0.00001923,0
 .00000248,-0.00000053,0.00002645,0.00001110,0.00000634,-0.00003822,-0.
 00004323,-0.00004628,-0.00007673,0.00000478,0.00013541,0.00016253,-0.0
 0008583,-0.00006748,0.00003503,-0.00005768,0.00002424,0.00006201,0.000
 12953,0.00004471,0.00015721,-0.00018450,0.00015627,-0.00001650,0.00001
 381,0.00001686,-0.00002643,0.00000545,-0.00002718,0.00000163,0.0000081
 6,-0.00000768,0.00000920,-0.00000301,0.00000685,0.00159161,-0.00024602
 ,0.00024024,-0.00509048,0.00292958,-0.00122001,-0.00160338,-0.02189706
 ,-0.00195484,0.05528409,-0.00006439,0.00012370,0.00000518,0.00013977,-
 0.00013887,-0.00004065,0.00001744,0.00005829,0.00018100,-0.00069475,0.
 00195732,0.00027070,-0.00033664,-0.00032571,0.00006028,0.00020589,-0.0
 0013471,-0.00006785,-0.00001763,0.00006686,0.00005018,0.00008370,-0.01
 557570,-0.00257543,-0.02318995,-0.29888252,-0.03743333,-0.00065050,-0.
 00171472,-0.00290750,0.00002470,-0.00000116,-0.00000797,-0.00000919,-0
 .00002425,-0.00000342,-0.00001453,0.00007552,0.00011370,0.00008641,-0.
 00003666,-0.00003414,-0.00018755,0.00003650,-0.00000449,0.00005003,0.0
 0005316,0.00002729,0.00021868,0.00010845,-0.00009724,0.00002960,0.0002
 0846,-0.00011914,0.00001460,0.00004803,0.00007238,-0.00007878,0.000027
 06,0.00004353,-0.00000772,0.00000450,-0.00002875,0.00001205,-0.0000109
 0,0.00001793,0.00000422,0.00121241,-0.00014766,0.00276311,0.00018803,0
 .00031101,-0.00154171,-0.01225500,-0.00042676,0.02378228,0.32257526,0.
 00001548,-0.00001161,-0.00004835,-0.00002852,0.00003172,0.00010442,-0.
 00019625,-0.00004125,0.00001620,0.00061590,0.00022381,0.00080854,0.000
 22887,0.00067933,-0.00023914,-0.00010483,0.00008095,0.00005844,0.00001
 046,-0.00004557,-0.00002342,0.00084467,0.00366795,0.00048669,-0.001614
 16,-0.02982388,-0.05353055,-0.00363789,-0.03608499,-0.01168867,0.00000
 280,0.00000382,0.00001328,-0.00001148,0.00000154,-0.00000217,-0.000028
 15,-0.00003286,-0.00004856,0.00002246,0.00001267,-0.00002195,0.0000770
 5,-0.00007097,-0.00003177,0.00001469,0.00001393,-0.00000418,-0.0001862
 6,-0.00020513,0.00009678,-0.00016283,-0.00012249,-0.00017269,-0.000003
 73,-0.00002649,-0.00006197,0.00005549,-0.00000546,-0.00005859,-0.00000
 172,-0.00000996,0.00002126,-0.00000920,0.00000443,-0.00001016,0.000044
 50,-0.00068236,0.00021614,-0.00100906,-0.00004463,0.00008271,0.0019462
 8,0.02047693,0.00387600,0.00576895,0.04349118,0.06487481,0.00000035,0.
 00005570,0.00001418,0.00002678,-0.00005756,0.00000042,-0.00013552,0.00
 001222,0.00001804,-0.00010526,0.00106500,0.00045948,0.00022256,0.00024
 011,-0.00012830,0.00002996,-0.00004584,-0.00002516,-0.00007475,-0.0000
 0465,0.00004934,0.00059130,-0.00324514,-0.00090646,-0.00334100,-0.0112
 9825,0.00381915,-0.05525198,-0.09224810,-0.04274512,0.00001315,-0.0000
 0425,-0.00000941,-0.00000166,-0.00000687,-0.00000081,0.00000025,0.0000
 2315,0.00003725,0.00001741,-0.00003572,-0.00000806,-0.00006054,0.00002
 810,-0.00002348,0.00004313,0.00001741,0.00003106,-0.00002885,-0.000114
 57,-0.00002581,-0.00010383,0.00001620,-0.00006933,-0.00002326,-0.00000
 243,-0.00001541,-0.00000489,0.00002917,0.00002850,-0.00000195,0.000001
 22,-0.00001348,0.00002149,-0.00000844,0.00001823,-0.00014995,-0.000078
 84,-0.00010106,-0.00034080,0.00136628,-0.00013546,0.00073474,0.0013105
 4,-0.00020326,-0.00049084,-0.00018406,-0.00257904,0.05334688,-0.000015
 49,0.00000867,-0.00000159,0.00002466,-0.00001242,0.00000897,-0.0000179
 2,0.00002676,0.00001167,0.00010277,-0.00011312,0.00007320,0.00003993,0
 .00004820,-0.00002898,-0.00001867,-0.00001355,0.00000807,0.00001139,0.
 00000141,-0.00000901,-0.00021108,0.00130941,0.00026642,-0.00255429,-0.
 00426413,0.00257154,-0.05601973,-0.39829241,-0.06923336,0.00000443,-0.
 00000212,-0.00000152,-0.00000079,-0.00000167,0.00000006,-0.00000396,0.
 00000358,0.00000850,0.00000345,-0.00000321,-0.00000805,0.00000843,-0.0
 0000003,-0.00000507,-0.00000100,0.00000823,-0.00000513,-0.00004567,0.0
 0002586,-0.00001157,0.00002323,-0.00001860,0.00000553,0.00000370,-0.00
 000296,-0.00000561,-0.00000160,-0.00000544,-0.00000675,0.00000182,0.00
 000191,0.00000519,-0.00000672,-0.00000134,-0.00000325,0.00007430,-0.00
 014455,0.00000813,-0.00055369,-0.00007307,-0.00021418,0.00093165,0.001
 33063,0.00059472,0.00001424,0.00208548,-0.00130148,0.06787562,0.418879
 82,0.00003829,0.00002681,-0.00001825,0.00000404,-0.00004601,-0.0000159
 8,-0.00011834,0.00009902,0.00011802,0.00011427,0.00055464,-0.00004686,
 -0.00026762,-0.00014730,0.00003868,0.00006849,-0.00000096,-0.00006383,
 0.00002287,0.00001138,0.00004516,0.00060661,-0.00080679,0.00054068,-0.
 00769957,-0.03925247,-0.00951678,-0.03031778,-0.03776720,-0.04589816,0
 .00000246,0.00001032,0.00000973,-0.00000447,-0.00000593,0.00000046,0.0
 0000901,0.00000248,0.00001678,0.00000036,0.00000095,-0.00000654,-0.000
 01822,-0.00001986,-0.00002810,0.00002471,0.00000011,-0.00000542,0.0001
 0083,0.00006094,-0.00008447,0.00005386,0.00003956,-0.00000782,0.000022
 54,0.00002169,0.00005758,-0.00002506,-0.00000797,-0.00000018,-0.000001
 52,-0.00000067,-0.00001457,0.00000160,0.00000143,0.00000365,0.00020187
 ,0.00025315,0.00003500,-0.00056932,0.00073709,0.00025749,0.00095690,-0
 .00042286,0.00137375,-0.00244581,-0.00016531,-0.00617524,0.03513167,0.
 06924219,0.05898501,-0.00005948,-0.00006843,0.00002257,0.00000477,0.00
 007743,-0.00001509,0.00024205,0.00014459,-0.00032857,-0.00096340,0.000
 50812,-0.00017674,-0.00016708,-0.00019246,0.00000741,-0.00000102,0.000
 07164,0.00003572,0.00003153,0.00000482,-0.00008209,0.00037501,-0.00167
 034,-0.00376751,-0.01004751,0.00378169,0.00620616,-0.30432694,0.190667
 42,-0.08646772,-0.00001697,-0.00001035,-0.00001576,0.00000883,0.000018
 19,0.00000012,-0.00000222,-0.00001253,-0.00002517,-0.00000511,0.000021
 46,0.00001841,-0.00001952,0.00000075,0.00003224,-0.00015401,-0.0000201
 4,-0.00004179,0.00000269,0.00001597,0.00001287,-0.00000518,0.00007307,
 -0.00004169,-0.00000512,0.00000198,0.00000057,0.00001183,-0.00000188,0
 .00000191,-0.00000232,-0.00000317,0.00001397,-0.00000310,0.00000763,-0
 .00001359,0.00045414,-0.00005187,0.00011205,0.00027082,-0.00007147,0.0
 0019962,0.00132262,-0.00002927,0.00046347,0.00022672,-0.00045508,-0.00
 007447,0.00506710,-0.00966901,0.00410733,0.30776089,-0.00003181,-0.000
 04678,0.00001697,-0.00000077,0.00004620,-0.00001394,0.00005941,0.00010
 484,-0.00009272,-0.00059700,0.00049536,-0.00066037,0.00000953,-0.00004
 773,-0.00001750,0.00000402,0.00003235,0.00002364,-0.00001026,-0.000004
 41,-0.00004673,-0.00049488,-0.00030327,-0.00138484,-0.00679325,0.00439
 558,-0.00093096,0.15618645,-0.15133805,0.02301681,-0.00001328,-0.00000
 583,-0.00001200,0.00000455,0.00001551,0.00000076,0.00000145,-0.0000071
 6,-0.00002029,-0.00000104,0.00001797,0.00001980,-0.00001628,-0.0000077
 0,0.00000698,-0.00006264,-0.00001318,-0.00004549,-0.00001885,-0.000043
 69,0.00000927,-0.00003885,0.00003579,-0.00002802,-0.00001774,-0.000002
 91,-0.00001260,0.00001169,0.00001034,0.00001403,0.00000162,0.00000064,
 0.00000952,0.00000274,0.00000435,-0.00000502,0.00018550,-0.00002095,-0
 .00003688,-0.00022579,0.00045080,0.00013942,0.00011664,-0.00046320,-0.
 00028655,-0.00041643,0.00027116,-0.00017912,0.03529402,-0.02078136,0.0
 0758157,-0.18313875,0.16720532,0.00001063,-0.00001838,0.00000602,-0.00
 000140,0.00004857,0.00001533,-0.00004134,0.00022179,-0.00056020,-0.001
 95565,0.00032733,-0.00003173,-0.00024801,-0.00018557,0.00013052,-0.000
 04746,0.00004553,0.00000017,0.00005717,-0.00000508,0.00000222,0.001513
 12,-0.00249106,-0.00567151,-0.03226151,0.02118335,-0.00961220,-0.05465
 874,0.00953090,-0.04578011,-0.00000290,-0.00000282,0.00000525,0.000004
 67,0.00000928,0.00000179,0.00000541,-0.00000918,-0.00000578,-0.0000017
 7,-0.00002085,0.00001002,-0.00000905,0.00001614,0.00001513,-0.00019852
 ,-0.00001900,-0.00002711,0.00006591,0.00001071,0.00004059,0.00002754,0
 .00003894,-0.00002612,0.00002412,0.00000117,0.00002081,0.00000215,-0.0
 0002188,-0.00001928,0.00000147,-0.00000485,-0.00000025,-0.00001727,0.0
 0000720,-0.00001318,-0.00010706,-0.00027748,0.00005223,0.00027855,0.00
 032640,0.00002987,0.00020851,0.00090790,0.00025299,0.00015335,-0.00058
 470,0.00146215,0.00738232,-0.00196864,0.00040019,0.07981577,-0.0270657
 4,0.05930222\\0.00000011,0.00000021,-0.00000291,-0.00000003,-0.0000032
 9,0.00000225,0.00000360,0.00000136,-0.00000290,-0.00000196,0.00000075,
 0.00000190,0.00000161,0.00000091,-0.00000111,-0.00000058,0.00000063,-0
 .00000004,0.00000033,-0.00000101,0.00000096,-0.00000173,-0.00000182,-0
 .00000192,-0.00000096,0.00000210,0.00000137,-0.00000068,0.00000079,-0.
 00000062,0.00000048,-0.00000102,0.00000016,0.00000128,-0.00000249,-0.0
 0000084,0.00000034,-0.00000051,-0.00000027,0.00000033,-0.00000095,-0.0
 0000070,-0.00000107,-0.00000071,-0.00000013,0.00000019,-0.00000038,-0.
 00000145,-0.00000140,0.00000041,0.00000077,-0.00000141,-0.00000038,0.0
 0000023,0.00000117,-0.00000044,-0.00000038,0.00000090,0.00000016,0.000
 00029,-0.00000044,-0.00000027,0.00000030,0.00000053,-0.00000009,-0.000
 00006,0.00000078,-0.00000025,0.00000092,-0.00000043,0.00000195,0.00000
 073,0.00000125,0.00000035,0.00000155,-0.00000044,0.00000055,0.00000023
 ,-0.00000188,0.00000136,0.00000041,0.00000011,0.00000206,0.00000126\\\
 @


 BETTER TO HUNT IN FIELDS, FOR HEALTH UNBOUGHT
 THAN FEE THE DOCTOR FOR A NAUSEOUS DRAUGHT.
 THE WISE, FOR CURE, ON EXERCISE DEPEND;
 GOD NEVER MADE HIS WORK FOR MAN TO MEND.
     -- JOHN DRYDEN (1631-1700)
 Job cpu time:       0 days  1 hours 22 minutes 48.8 seconds.
 Elapsed time:       0 days  0 hours  5 minutes 11.9 seconds.
 File lengths (MBytes):  RWF=    324 Int=      0 D2E=      0 Chk=     12 Scr=      2
 Normal termination of Gaussian 16 at Tue Dec  5 13:12:43 2023.
